 Entering Gaussian System, Link 0=g16
 Initial command:
 /ihome/crc/install/gaussian/c01/avx2/tar/g16/l1.exe "/scratch/slurm-16194846/Gau-23891.inp" -scrdir="/scratch/slurm-16194846/"
 Entering Link 1 = /ihome/crc/install/gaussian/c01/avx2/tar/g16/l1.exe PID=     23895.
  
 Copyright (c) 1988-2019, Gaussian, Inc.  All Rights Reserved.
  
 This is part of the Gaussian(R) 16 program.  It is based on
 the Gaussian(R) 09 system (copyright 2009, Gaussian, Inc.),
 the Gaussian(R) 03 system (copyright 2003, Gaussian, Inc.),
 the Gaussian(R) 98 system (copyright 1998, Gaussian, Inc.),
 the Gaussian(R) 94 system (copyright 1995, Gaussian, Inc.),
 the Gaussian 92(TM) system (copyright 1992, Gaussian, Inc.),
 the Gaussian 90(TM) system (copyright 1990, Gaussian, Inc.),
 the Gaussian 88(TM) system (copyright 1988, Gaussian, Inc.),
 the Gaussian 86(TM) system (copyright 1986, Carnegie Mellon
 University), and the Gaussian 82(TM) system (copyright 1983,
 Carnegie Mellon University). Gaussian is a federally registered
 trademark of Gaussian, Inc.
  
 This software contains proprietary and confidential information,
 including trade secrets, belonging to Gaussian, Inc.
  
 This software is provided under written license and may be
 used, copied, transmitted, or stored only in accord with that
 written license.
  
 The following legend is applicable only to US Government
 contracts under FAR:
  
                    RESTRICTED RIGHTS LEGEND
  
 Use, reproduction and disclosure by the US Government is
 subject to restrictions as set forth in subparagraphs (a)
 and (c) of the Commercial Computer Software - Restricted
 Rights clause in FAR 52.227-19.
  
 Gaussian, Inc.
 340 Quinnipiac St., Bldg. 40, Wallingford CT 06492
  
  
 ---------------------------------------------------------------
 Warning -- This program may not be used in any manner that
 competes with the business of Gaussian, Inc. or will provide
 assistance to any competitor of Gaussian, Inc.  The licensee
 of this program is prohibited from giving any competitor of
 Gaussian, Inc. access to this program.  By using this program,
 the user acknowledges that Gaussian, Inc. is engaged in the
 business of creating and licensing software in the field of
 computational chemistry and represents and warrants to the
 licensee that it is not a competitor of Gaussian, Inc. and that
 it will not use this program in any manner prohibited above.
 ---------------------------------------------------------------
  

 Cite this work as:
 Gaussian 16, Revision C.01,
 M. J. Frisch, G. W. Trucks, H. B. Schlegel, G. E. Scuseria, 
 M. A. Robb, J. R. Cheeseman, G. Scalmani, V. Barone, 
 G. A. Petersson, H. Nakatsuji, X. Li, M. Caricato, A. V. Marenich, 
 J. Bloino, B. G. Janesko, R. Gomperts, B. Mennucci, H. P. Hratchian, 
 J. V. Ortiz, A. F. Izmaylov, J. L. Sonnenberg, D. Williams-Young, 
 F. Ding, F. Lipparini, F. Egidi, J. Goings, B. Peng, A. Petrone, 
 T. Henderson, D. Ranasinghe, V. G. Zakrzewski, J. Gao, N. Rega, 
 G. Zheng, W. Liang, M. Hada, M. Ehara, K. Toyota, R. Fukuda, 
 J. Hasegawa, M. Ishida, T. Nakajima, Y. Honda, O. Kitao, H. Nakai, 
 T. Vreven, K. Throssell, J. A. Montgomery, Jr., J. E. Peralta, 
 F. Ogliaro, M. J. Bearpark, J. J. Heyd, E. N. Brothers, K. N. Kudin, 
 V. N. Staroverov, T. A. Keith, R. Kobayashi, J. Normand, 
 K. Raghavachari, A. P. Rendell, J. C. Burant, S. S. Iyengar, 
 J. Tomasi, M. Cossi, J. M. Millam, M. Klene, C. Adamo, R. Cammi, 
 J. W. Ochterski, R. L. Martin, K. Morokuma, O. Farkas, 
 J. B. Foresman, and D. J. Fox, Gaussian, Inc., Wallingford CT, 2019.
 
 ******************************************
 Gaussian 16:  ES64L-G16RevC.01  3-Jul-2019
                13-Jul-2024 
 ******************************************
 ----------------------------------------------------
 #P SP ROHF/6-31+G Pop=(Full) scf=tight IOp(6/27=122)
 ----------------------------------------------------
 1/38=1,172=1/1;
 2/12=2,17=6,18=5,40=1/2;
 3/5=1,6=6,7=10,11=2,25=1,30=1,116=101/1,2,3;
 4//1;
 5/5=2,32=2,38=5/2;
 6/7=3,27=122,28=1/1;
 99/5=1,9=1/99;
 Leave Link    1 at Sat Jul 13 20:15:51 2024, MaxMem=           0 cpu:               0.0 elap:               0.0
 (Enter /ihome/crc/install/gaussian/c01/avx2/tar/g16/l101.exe)
 -----
 CH2_3
 -----
 Symbolic Z-matrix:
 Charge =  0 Multiplicity = 3
 C                     0.12239   0.        0.08835 
 H                    -0.12547   0.        1.13687 
 H                     1.03956   0.       -0.477 
 
 ITRead=  0  0  0
 MicOpt= -1 -1 -1
 NAtoms=      3 NQM=        3 NQMF=       0 NMMI=      0 NMMIF=      0
                NMic=       0 NMicF=      0.
                    Isotopes and Nuclear Properties:
 (Nuclear quadrupole moments (NQMom) in fm**2, nuclear magnetic moments (NMagM)
  in nuclear magnetons)

  Atom         1           2           3
 IAtWgt=          12           1           1
 AtmWgt=  12.0000000   1.0078250   1.0078250
 NucSpn=           0           1           1
 AtZEff=  -0.0000000  -0.0000000  -0.0000000
 NQMom=    0.0000000   0.0000000   0.0000000
 NMagM=    0.0000000   2.7928460   2.7928460
 AtZNuc=   6.0000000   1.0000000   1.0000000
 Leave Link  101 at Sat Jul 13 20:15:51 2024, MaxMem=   104857600 cpu:               0.1 elap:               0.1
 (Enter /ihome/crc/install/gaussian/c01/avx2/tar/g16/l202.exe)
                          Input orientation:                          
 ---------------------------------------------------------------------
 Center     Atomic      Atomic             Coordinates (Angstroms)
 Number     Number       Type             X           Y           Z
 ---------------------------------------------------------------------
      1          6           0        0.122391    0.000000    0.088352
      2          1           0       -0.125474    0.000000    1.136866
      3          1           0        1.039556    0.000000   -0.477002
 ---------------------------------------------------------------------
                    Distance matrix (angstroms):
                    1          2          3
     1  C    0.000000
     2  H    1.077413   0.000000
     3  H    1.077412   1.990443   0.000000
 Stoichiometry    CH2(3)
 Framework group  C2V[C2(C),SGV(H2)]
 Deg. of freedom     2
 Full point group                 C2V     NOp   4
 Largest Abelian subgroup         C2V     NOp   4
 Largest concise Abelian subgroup C2      NOp   2
                         Standard orientation:                         
 ---------------------------------------------------------------------
 Center     Atomic      Atomic             Coordinates (Angstroms)
 Number     Number       Type             X           Y           Z
 ---------------------------------------------------------------------
      1          6           0        0.000000    0.000000    0.103184
      2          1           0       -0.000000    0.995222   -0.309552
      3          1           0       -0.000000   -0.995222   -0.309552
 ---------------------------------------------------------------------
 Rotational constants (GHZ):        1719.0495944         253.1407387         220.6488273
 Leave Link  202 at Sat Jul 13 20:15:51 2024, MaxMem=   104857600 cpu:               0.0 elap:               0.0
 (Enter /ihome/crc/install/gaussian/c01/avx2/tar/g16/l301.exe)
 Standard basis: 6-31+G (6D, 7F)
 Ernie: Thresh=  0.10000D-02 Tol=  0.10000D-05 Strict=F.
 There are     9 symmetry adapted cartesian basis functions of A1  symmetry.
 There are     0 symmetry adapted cartesian basis functions of A2  symmetry.
 There are     3 symmetry adapted cartesian basis functions of B1  symmetry.
 There are     5 symmetry adapted cartesian basis functions of B2  symmetry.
 There are     9 symmetry adapted basis functions of A1  symmetry.
 There are     0 symmetry adapted basis functions of A2  symmetry.
 There are     3 symmetry adapted basis functions of B1  symmetry.
 There are     5 symmetry adapted basis functions of B2  symmetry.
    17 basis functions,    34 primitive gaussians,    17 cartesian basis functions
     5 alpha electrons        3 beta electrons
       nuclear repulsion energy         6.1597245869 Hartrees.
 IExCor=    0 DFT=F Ex=HF Corr=None ExCW=0 ScaHFX=  1.000000
 ScaDFX=  1.000000  1.000000  1.000000  1.000000 ScalE2=  1.000000  1.000000
 IRadAn=      5 IRanWt=     -1 IRanGd=            0 ICorTp=0 IEmpDi=  4
 NAtoms=    3 NActive=    3 NUniq=    2 SFac= 2.25D+00 NAtFMM=   60 NAOKFM=F Big=F
 Integral buffers will be    131072 words long.
 Raffenetti 2 integral format.
 Two-electron integral symmetry is turned on.
 Leave Link  301 at Sat Jul 13 20:15:51 2024, MaxMem=   104857600 cpu:               0.0 elap:               0.0
 (Enter /ihome/crc/install/gaussian/c01/avx2/tar/g16/l302.exe)
 NPDir=0 NMtPBC=     1 NCelOv=     1 NCel=       1 NClECP=     1 NCelD=      1
         NCelK=      1 NCelE2=     1 NClLst=     1 CellRange=     0.0.
 One-electron integrals computed using PRISM.
 One-electron integral symmetry used in STVInt
 NBasis=    17 RedAO= T EigKep=  4.14D-02  NBF=     9     0     3     5
 NBsUse=    17 1.00D-06 EigRej= -1.00D+00 NBFU=     9     0     3     5
 Leave Link  302 at Sat Jul 13 20:15:52 2024, MaxMem=   104857600 cpu:               0.0 elap:               0.0
 (Enter /ihome/crc/install/gaussian/c01/avx2/tar/g16/l303.exe)
 DipDrv:  MaxL=1.
 Leave Link  303 at Sat Jul 13 20:15:52 2024, MaxMem=   104857600 cpu:               0.0 elap:               0.0
 (Enter /ihome/crc/install/gaussian/c01/avx2/tar/g16/l401.exe)
 ExpMin= 4.38D-02 ExpMax= 3.05D+03 ExpMxC= 4.57D+02 IAcc=3 IRadAn=         5 AccDes= 0.00D+00
 Harris functional with IExCor=  205 and IRadAn=       5 diagonalized for initial guess.
 HarFok:  IExCor=  205 AccDes= 0.00D+00 IRadAn=         5 IDoV= 1 UseB2=F ITyADJ=14
 ICtDFT=  3500011 ScaDFX=  1.000000  1.000000  1.000000  1.000000
 FoFCou: FMM=F IPFlag=           0 FMFlag=      100000 FMFlg1=           0
         NFxFlg=           0 DoJE=T BraDBF=F KetDBF=T FulRan=T
         wScrn=  0.000000 ICntrl=       500 IOpCl=  0 I1Cent=   200000004 NGrid=           0
         NMat0=    1 NMatS0=      1 NMatT0=    0 NMatD0=    1 NMtDS0=    0 NMtDT0=    0
 Petite list used in FoFCou.
 Harris En= -38.8582719828783    
 JPrj=0 DoOrth=F DoCkMO=F.
 Initial guess orbital symmetries:
       Occupied  (A1) (A1) (B2) (A1) (B1)
       Virtual   (A1) (B2) (A1) (B1) (A1) (B2) (A1) (B2) (B1) (A1)
                 (A1) (B2)
 The electronic state of the initial guess is 3-B1.
 Leave Link  401 at Sat Jul 13 20:15:52 2024, MaxMem=   104857600 cpu:               0.1 elap:               0.1
 (Enter /ihome/crc/install/gaussian/c01/avx2/tar/g16/l502.exe)
 Keep R1 and R2 ints in memory in symmetry-blocked form, NReq=818176.
 FoFCou: FMM=F IPFlag=           0 FMFlag=           0 FMFlg1=           0
         NFxFlg=           0 DoJE=F BraDBF=F KetDBF=F FulRan=T
         wScrn=  0.000000 ICntrl=       600 IOpCl=  0 I1Cent=           0 NGrid=           0
         NMat0=    1 NMatS0=    153 NMatT0=    0 NMatD0=    1 NMtDS0=    0 NMtDT0=    0
 Petite list used in FoFCou.
 Restricted open shell SCF:
 Using DIIS extrapolation, IDIIS=  1040.
 NGot=   104857600 LenX=   104847670 LenY=   104846788
 Requested convergence on RMS density matrix=1.00D-08 within 128 cycles.
 Requested convergence on MAX density matrix=1.00D-06.
 Requested convergence on             energy=1.00D-06.
 No special actions if energy rises.

 Cycle   1  Pass 1  IDiag  1:
 E= -38.8868893067113    
 DIIS: error= 2.78D-02 at cycle   1 NSaved=   1.
 NSaved= 1 IEnMin= 1 EnMin= -38.8868893067113     IErMin= 1 ErrMin= 2.78D-02
 ErrMax= 2.78D-02  0.00D+00 EMaxC= 1.00D-01 BMatC= 2.49D-02 BMatP= 2.49D-02
 IDIUse=3 WtCom= 7.22D-01 WtEn= 2.78D-01
 Coeff-Com:  0.100D+01
 Coeff-En:   0.100D+01
 Coeff:      0.100D+01
 Gap=     0.174 Goal=   None    Shift=    0.000
 GapD=    0.174 DampG=1.000 DampE=0.500 DampFc=0.5000 IDamp=-1.
 Damping current iteration by 5.00D-01
 RMSDP=9.47D-03 MaxDP=8.53D-02              OVMax= 6.42D-02

 Cycle   2  Pass 1  IDiag  1:
 E= -38.8969326248728     Delta-E=       -0.010043318161 Rises=F Damp=T
 DIIS: error= 1.63D-02 at cycle   2 NSaved=   2.
 NSaved= 2 IEnMin= 2 EnMin= -38.8969326248728     IErMin= 2 ErrMin= 1.63D-02
 ErrMax= 1.63D-02  0.00D+00 EMaxC= 1.00D-01 BMatC= 4.72D-03 BMatP= 2.49D-02
 IDIUse=3 WtCom= 8.37D-01 WtEn= 1.63D-01
 Coeff-Com: -0.393D+00 0.139D+01
 Coeff-En:   0.000D+00 0.100D+01
 Coeff:     -0.329D+00 0.133D+01
 Gap=     0.178 Goal=   None    Shift=    0.000
 RMSDP=6.78D-03 MaxDP=5.75D-02 DE=-1.00D-02 OVMax= 1.08D-01

 Cycle   3  Pass 1  IDiag  1:
 E= -38.9067144853619     Delta-E=       -0.009781860489 Rises=F Damp=F
 DIIS: error= 9.72D-03 at cycle   3 NSaved=   3.
 NSaved= 3 IEnMin= 3 EnMin= -38.9067144853619     IErMin= 3 ErrMin= 9.72D-03
 ErrMax= 9.72D-03  0.00D+00 EMaxC= 1.00D-01 BMatC= 1.01D-03 BMatP= 4.72D-03
 IDIUse=3 WtCom= 9.03D-01 WtEn= 9.72D-02
 Coeff-Com: -0.253D+00 0.500D+00 0.753D+00
 Coeff-En:   0.000D+00 0.000D+00 0.100D+01
 Coeff:     -0.228D+00 0.452D+00 0.777D+00
 Gap=     0.173 Goal=   None    Shift=    0.000
 RMSDP=4.88D-03 MaxDP=4.36D-02 DE=-9.78D-03 OVMax= 6.10D-02

 Cycle   4  Pass 1  IDiag  1:
 E= -38.9089309849431     Delta-E=       -0.002216499581 Rises=F Damp=F
 DIIS: error= 1.62D-03 at cycle   4 NSaved=   4.
 NSaved= 4 IEnMin= 4 EnMin= -38.9089309849431     IErMin= 4 ErrMin= 1.62D-03
 ErrMax= 1.62D-03  0.00D+00 EMaxC= 1.00D-01 BMatC= 5.70D-05 BMatP= 1.01D-03
 IDIUse=3 WtCom= 9.84D-01 WtEn= 1.62D-02
 Coeff-Com: -0.520D-01 0.792D-01 0.232D+00 0.741D+00
 Coeff-En:   0.000D+00 0.000D+00 0.292D-01 0.971D+00
 Coeff:     -0.511D-01 0.779D-01 0.229D+00 0.745D+00
 Gap=     0.174 Goal=   None    Shift=    0.000
 RMSDP=1.44D-03 MaxDP=9.14D-03 DE=-2.22D-03 OVMax= 1.45D-02

 Cycle   5  Pass 1  IDiag  1:
 E= -38.9090824312307     Delta-E=       -0.000151446288 Rises=F Damp=F
 DIIS: error= 3.98D-04 at cycle   5 NSaved=   5.
 NSaved= 5 IEnMin= 5 EnMin= -38.9090824312307     IErMin= 5 ErrMin= 3.98D-04
 ErrMax= 3.98D-04  0.00D+00 EMaxC= 1.00D-01 BMatC= 2.99D-06 BMatP= 5.70D-05
 IDIUse=3 WtCom= 9.96D-01 WtEn= 3.98D-03
 Coeff-Com: -0.406D-03-0.787D-03-0.619D-02 0.465D-01 0.961D+00
 Coeff-En:   0.000D+00 0.000D+00 0.000D+00 0.000D+00 0.100D+01
 Coeff:     -0.405D-03-0.784D-03-0.616D-02 0.463D-01 0.961D+00
 Gap=     0.174 Goal=   None    Shift=    0.000
 RMSDP=4.04D-04 MaxDP=3.25D-03 DE=-1.51D-04 OVMax= 4.96D-03

 Cycle   6  Pass 1  IDiag  1:
 E= -38.9090991744369     Delta-E=       -0.000016743206 Rises=F Damp=F
 DIIS: error= 2.13D-04 at cycle   6 NSaved=   6.
 NSaved= 6 IEnMin= 6 EnMin= -38.9090991744369     IErMin= 6 ErrMin= 2.13D-04
 ErrMax= 2.13D-04  0.00D+00 EMaxC= 1.00D-01 BMatC= 9.07D-07 BMatP= 2.99D-06
 IDIUse=3 WtCom= 9.98D-01 WtEn= 2.13D-03
 Coeff-Com:  0.849D-02-0.143D-01-0.311D-01-0.108D+00 0.256D+00 0.889D+00
 Coeff-En:   0.000D+00 0.000D+00 0.000D+00 0.000D+00 0.000D+00 0.100D+01
 Coeff:      0.847D-02-0.143D-01-0.311D-01-0.108D+00 0.255D+00 0.889D+00
 Gap=     0.174 Goal=   None    Shift=    0.000
 RMSDP=2.11D-04 MaxDP=1.64D-03 DE=-1.67D-05 OVMax= 2.04D-03

 Cycle   7  Pass 1  IDiag  1:
 E= -38.9091023722422     Delta-E=       -0.000003197805 Rises=F Damp=F
 DIIS: error= 8.39D-05 at cycle   7 NSaved=   7.
 NSaved= 7 IEnMin= 7 EnMin= -38.9091023722422     IErMin= 7 ErrMin= 8.39D-05
 ErrMax= 8.39D-05  0.00D+00 EMaxC= 1.00D-01 BMatC= 9.97D-08 BMatP= 9.07D-07
 IDIUse=1 WtCom= 1.00D+00 WtEn= 0.00D+00
 Coeff-Com:  0.175D-02-0.377D-02 0.638D-02 0.131D-01-0.670D-01 0.298D-01
 Coeff-Com:  0.102D+01
 Coeff:      0.175D-02-0.377D-02 0.638D-02 0.131D-01-0.670D-01 0.298D-01
 Coeff:      0.102D+01
 Gap=     0.174 Goal=   None    Shift=    0.000
 RMSDP=4.52D-05 MaxDP=3.65D-04 DE=-3.20D-06 OVMax= 4.59D-04

 Cycle   8  Pass 1  IDiag  1:
 E= -38.9091025675671     Delta-E=       -0.000000195325 Rises=F Damp=F
 DIIS: error= 2.11D-05 at cycle   8 NSaved=   8.
 NSaved= 8 IEnMin= 8 EnMin= -38.9091025675671     IErMin= 8 ErrMin= 2.11D-05
 ErrMax= 2.11D-05  0.00D+00 EMaxC= 1.00D-01 BMatC= 6.86D-09 BMatP= 9.97D-08
 IDIUse=1 WtCom= 1.00D+00 WtEn= 0.00D+00
 Coeff-Com:  0.170D-03-0.649D-03 0.219D-02 0.904D-02-0.880D-02-0.680D-01
 Coeff-Com:  0.276D-01 0.104D+01
 Coeff:      0.170D-03-0.649D-03 0.219D-02 0.904D-02-0.880D-02-0.680D-01
 Coeff:      0.276D-01 0.104D+01
 Gap=     0.174 Goal=   None    Shift=    0.000
 RMSDP=1.24D-05 MaxDP=1.26D-04 DE=-1.95D-07 OVMax= 1.09D-04

 Cycle   9  Pass 1  IDiag  1:
 E= -38.9091025801908     Delta-E=       -0.000000012624 Rises=F Damp=F
 DIIS: error= 8.06D-06 at cycle   9 NSaved=   9.
 NSaved= 9 IEnMin= 9 EnMin= -38.9091025801908     IErMin= 9 ErrMin= 8.06D-06
 ErrMax= 8.06D-06  0.00D+00 EMaxC= 1.00D-01 BMatC= 5.76D-10 BMatP= 6.86D-09
 IDIUse=1 WtCom= 1.00D+00 WtEn= 0.00D+00
 Coeff-Com:  0.102D-03-0.258D-03-0.194D-03 0.151D-02 0.500D-02-0.200D-01
 Coeff-Com: -0.530D-01 0.192D+00 0.875D+00
 Coeff:      0.102D-03-0.258D-03-0.194D-03 0.151D-02 0.500D-02-0.200D-01
 Coeff:     -0.530D-01 0.192D+00 0.875D+00
 Gap=     0.174 Goal=   None    Shift=    0.000
 RMSDP=3.77D-06 MaxDP=2.58D-05 DE=-1.26D-08 OVMax= 4.46D-05

 Cycle  10  Pass 1  IDiag  1:
 E= -38.9091025811789     Delta-E=       -0.000000000988 Rises=F Damp=F
 DIIS: error= 1.82D-06 at cycle  10 NSaved=  10.
 NSaved=10 IEnMin=10 EnMin= -38.9091025811789     IErMin=10 ErrMin= 1.82D-06
 ErrMax= 1.82D-06  0.00D+00 EMaxC= 1.00D-01 BMatC= 5.50D-11 BMatP= 5.76D-10
 IDIUse=1 WtCom= 1.00D+00 WtEn= 0.00D+00
 Coeff-Com:  0.820D-04-0.138D-03-0.322D-03-0.472D-03 0.165D-02 0.364D-02
 Coeff-Com:  0.244D-02-0.102D+00 0.884D-01 0.101D+01
 Coeff:      0.820D-04-0.138D-03-0.322D-03-0.472D-03 0.165D-02 0.364D-02
 Coeff:      0.244D-02-0.102D+00 0.884D-01 0.101D+01
 Gap=     0.174 Goal=   None    Shift=    0.000
 RMSDP=1.12D-06 MaxDP=8.28D-06 DE=-9.88D-10 OVMax= 9.55D-06

 Cycle  11  Pass 1  IDiag  1:
 E= -38.9091025812732     Delta-E=       -0.000000000094 Rises=F Damp=F
 DIIS: error= 5.36D-07 at cycle  11 NSaved=  11.
 NSaved=11 IEnMin=11 EnMin= -38.9091025812732     IErMin=11 ErrMin= 5.36D-07
 ErrMax= 5.36D-07  0.00D+00 EMaxC= 1.00D-01 BMatC= 4.02D-12 BMatP= 5.50D-11
 IDIUse=1 WtCom= 1.00D+00 WtEn= 0.00D+00
 Coeff-Com:  0.967D-05-0.219D-04 0.520D-04 0.136D-03-0.223D-03 0.411D-03
 Coeff-Com:  0.320D-02-0.303D-02-0.505D-01-0.649D-01 0.111D+01
 Coeff:      0.967D-05-0.219D-04 0.520D-04 0.136D-03-0.223D-03 0.411D-03
 Coeff:      0.320D-02-0.303D-02-0.505D-01-0.649D-01 0.111D+01
 Gap=     0.174 Goal=   None    Shift=    0.000
 RMSDP=2.76D-07 MaxDP=2.23D-06 DE=-9.43D-11 OVMax= 1.82D-06

 Cycle  12  Pass 1  IDiag  1:
 E= -38.9091025812806     Delta-E=       -0.000000000007 Rises=F Damp=F
 DIIS: error= 1.22D-07 at cycle  12 NSaved=  12.
 NSaved=12 IEnMin=12 EnMin= -38.9091025812806     IErMin=12 ErrMin= 1.22D-07
 ErrMax= 1.22D-07  0.00D+00 EMaxC= 1.00D-01 BMatC= 1.38D-13 BMatP= 4.02D-12
 IDIUse=1 WtCom= 1.00D+00 WtEn= 0.00D+00
 Coeff-Com: -0.431D-06 0.865D-06-0.100D-04-0.385D-04 0.616D-04-0.462D-04
 Coeff-Com: -0.928D-03 0.124D-02 0.103D-01-0.757D-02-0.332D+00 0.133D+01
 Coeff:     -0.431D-06 0.865D-06-0.100D-04-0.385D-04 0.616D-04-0.462D-04
 Coeff:     -0.928D-03 0.124D-02 0.103D-01-0.757D-02-0.332D+00 0.133D+01
 Gap=     0.174 Goal=   None    Shift=    0.000
 RMSDP=4.44D-08 MaxDP=4.80D-07 DE=-7.40D-12 OVMax= 6.04D-07

 Cycle  13  Pass 1  IDiag  1:
 E= -38.9091025812809     Delta-E=       -0.000000000000 Rises=F Damp=F
 DIIS: error= 8.60D-09 at cycle  13 NSaved=  13.
 NSaved=13 IEnMin=13 EnMin= -38.9091025812809     IErMin=13 ErrMin= 8.60D-09
 ErrMax= 8.60D-09  0.00D+00 EMaxC= 1.00D-01 BMatC= 1.01D-15 BMatP= 1.38D-13
 IDIUse=1 WtCom= 1.00D+00 WtEn= 0.00D+00
 Coeff-Com:  0.656D-06-0.111D-05-0.192D-05 0.172D-05 0.154D-05 0.179D-04
 Coeff-Com:  0.648D-04-0.394D-03 0.682D-03 0.566D-02 0.187D-01-0.129D+00
 Coeff-Com:  0.110D+01
 Coeff:      0.656D-06-0.111D-05-0.192D-05 0.172D-05 0.154D-05 0.179D-04
 Coeff:      0.648D-04-0.394D-03 0.682D-03 0.566D-02 0.187D-01-0.129D+00
 Coeff:      0.110D+01
 Gap=     0.174 Goal=   None    Shift=    0.000
 RMSDP=4.93D-09 MaxDP=3.54D-08 DE=-2.84D-13 OVMax= 5.71D-08

 SCF Done:  E(ROHF) =  -38.9091025813     A.U. after   13 cycles
            NFock= 13  Conv=0.49D-08     -V/T= 1.9997
 <Sx>= 0.0000 <Sy>= 0.0000 <Sz>= 1.0000 <S**2>= 2.0000 S= 1.0000
 <L.S>=  0.00000000000    
 KE= 3.892263401884D+01 PE=-1.027704381952D+02 EE= 1.877897700818D+01
 Annihilation of the first spin contaminant:
 S**2 before annihilation     2.0000,   after     2.0000
 Leave Link  502 at Sat Jul 13 20:15:52 2024, MaxMem=   104857600 cpu:               0.1 elap:               0.1
 (Enter /ihome/crc/install/gaussian/c01/avx2/tar/g16/l601.exe)
 Copying SCF densities to generalized density rwf, IOpCl= 0 IROHF=1.

 **********************************************************************

            Population analysis using the SCF Density.

 **********************************************************************

 Orbital symmetries:
       Occupied  (A1) (A1) (B2) (A1) (B1)
       Virtual   (A1) (B2) (A1) (B1) (A1) (B2) (A1) (B2) (B1) (A1)
                 (A1) (B2)
 The electronic state is 3-B1.
 Alpha  occ. eigenvalues --  -11.24199  -0.83173  -0.59818  -0.09871  -0.07316
 Alpha virt. eigenvalues --    0.10121   0.11701   0.13514   0.13921   0.30012
 Alpha virt. eigenvalues --    0.37371   0.87648   0.87980   0.88938   1.02255
 Alpha virt. eigenvalues --    1.22206   1.34536
     Molecular Orbital Coefficients:
                           1         2         3         4         5
                        (A1)--O   (A1)--O   (B2)--O   (A1)--O   (B1)--O
     Eigenvalues --   -11.24199  -0.83173  -0.59818  -0.09871  -0.07316
   1 1   C  1S          0.99641  -0.18933   0.00000  -0.08687   0.00000
   2        2S          0.02281   0.38421   0.00000   0.18978   0.00000
   3        2PX         0.00000   0.00000   0.00000   0.00000   0.61025
   4        2PY         0.00000   0.00000   0.44916   0.00000   0.00000
   5        2PZ        -0.00091  -0.13307   0.00000   0.55515   0.00000
   6        3S         -0.01088   0.34084   0.00000   0.36784   0.00000
   7        3PX         0.00000   0.00000   0.00000   0.00000   0.47815
   8        3PY         0.00000   0.00000   0.16686   0.00000   0.00000
   9        3PZ         0.00040  -0.06220   0.00000   0.38466   0.00000
  10        4S          0.00134   0.00055   0.00000   0.03418   0.00000
  11        4PX         0.00000   0.00000   0.00000   0.00000   0.07886
  12        4PY         0.00000   0.00000   0.00463   0.00000   0.00000
  13        4PZ         0.00016  -0.00507   0.00000   0.05089   0.00000
  14 2   H  1S         -0.00025   0.19797   0.25640  -0.08766   0.00000
  15        2S          0.00205   0.08641   0.18959  -0.12155   0.00000
  16 3   H  1S         -0.00025   0.19797  -0.25640  -0.08766   0.00000
  17        2S          0.00205   0.08641  -0.18959  -0.12155   0.00000
                           6         7         8         9        10
                        (A1)--V   (B2)--V   (A1)--V   (B1)--V   (A1)--V
     Eigenvalues --     0.10121   0.11701   0.13514   0.13921   0.30012
   1 1   C  1S          0.06862   0.00000   0.03300   0.00000  -0.10433
   2        2S         -0.05551   0.00000  -0.02167   0.00000   0.05894
   3        2PX         0.00000   0.00000   0.00000  -0.15881   0.00000
   4        2PY         0.00000  -0.12472   0.00000   0.00000   0.00000
   5        2PZ         0.05688   0.00000  -0.12276   0.00000  -0.17103
   6        3S         -0.63922   0.00000  -0.41141   0.00000   1.91290
   7        3PX         0.00000   0.00000   0.00000  -0.45655   0.00000
   8        3PY         0.00000  -0.14556   0.00000   0.00000   0.00000
   9        3PZ         0.03876   0.00000  -0.36180   0.00000  -0.74978
  10        4S          1.48759   0.00000   0.30162   0.00000   0.78676
  11        4PX         0.00000   0.00000   0.00000   1.17281   0.00000
  12        4PY         0.00000   1.23891   0.00000   0.00000   0.00000
  13        4PZ        -0.31602   0.00000   1.14397   0.00000  -0.06498
  14 2   H  1S         -0.00281  -0.01999   0.02267   0.00000  -0.13313
  15        2S         -0.20926  -0.29129   0.14047   0.00000  -1.66038
  16 3   H  1S         -0.00281   0.01999   0.02267   0.00000  -0.13313
  17        2S         -0.20926   0.29129   0.14047   0.00000  -1.66038
                          11        12        13        14        15
                        (B2)--V   (A1)--V   (B2)--V   (B1)--V   (A1)--V
     Eigenvalues --     0.37371   0.87648   0.87980   0.88938   1.02255
   1 1   C  1S          0.00000   0.01550   0.00000   0.00000  -0.00019
   2        2S          0.00000   0.15765   0.00000   0.00000  -1.69706
   3        2PX         0.00000   0.00000   0.00000  -1.08983   0.00000
   4        2PY        -0.29646   0.00000  -0.96222   0.00000   0.00000
   5        2PZ         0.00000  -1.02710   0.00000   0.00000  -0.24608
   6        3S          0.00000  -0.35878   0.00000   0.00000   2.44415
   7        3PX         0.00000   0.00000   0.00000   1.38683   0.00000
   8        3PY        -1.91334   0.00000   2.15082   0.00000   0.00000
   9        3PZ         0.00000   1.42834   0.00000   0.00000   0.07634
  10        4S          0.00000   0.11765   0.00000   0.00000  -0.81997
  11        4PX         0.00000   0.00000   0.00000  -0.50682   0.00000
  12        4PY        -0.51787   0.00000  -0.42495   0.00000   0.00000
  13        4PZ         0.00000  -0.52005   0.00000   0.00000  -0.03533
  14 2   H  1S          0.05341   0.21840  -0.31152   0.00000  -0.44041
  15        2S          2.18787  -0.04079  -0.56970   0.00000   0.08372
  16 3   H  1S         -0.05341   0.21840   0.31152   0.00000  -0.44041
  17        2S         -2.18787  -0.04079   0.56970   0.00000   0.08372
                          16        17
                        (A1)--V   (B2)--V
     Eigenvalues --     1.22206   1.34536
   1 1   C  1S          0.06249   0.00000
   2        2S         -1.07876   0.00000
   3        2PX         0.00000   0.00000
   4        2PY         0.00000   0.73329
   5        2PZ         0.35059   0.00000
   6        3S          2.05099   0.00000
   7        3PX         0.00000   0.00000
   8        3PY         0.00000  -0.66552
   9        3PZ        -0.42186   0.00000
  10        4S          0.42638   0.00000
  11        4PX         0.00000   0.00000
  12        4PY         0.00000  -0.41129
  13        4PZ        -0.15346   0.00000
  14 2   H  1S          0.86105  -0.98690
  15        2S         -1.53801   1.41147
  16 3   H  1S          0.86105   0.98690
  17        2S         -1.53801  -1.41147
     Alpha Density Matrix:
                           1         2         3         4         5
   1 1   C  1S          1.03623
   2        2S         -0.06650   0.18415
   3        2PX         0.00000   0.00000   0.37240
   4        2PY        -0.00000   0.00000  -0.00000   0.20174
   5        2PZ        -0.02394   0.05421   0.00000   0.00000   0.32590
   6        3S         -0.10733   0.20052   0.00000   0.00000   0.15887
   7        3PX         0.00000   0.00000   0.29179  -0.00000   0.00000
   8        3PY        -0.00000   0.00000  -0.00000   0.07495   0.00000
   9        3PZ        -0.02124   0.04911   0.00000   0.00000   0.22182
  10        4S         -0.00173   0.00673   0.00000   0.00000   0.01890
  11        4PX         0.00000   0.00000   0.04812  -0.00000   0.00000
  12        4PY        -0.00000   0.00000   0.00000   0.00208   0.00000
  13        4PZ        -0.00330   0.00771   0.00000   0.00000   0.02893
  14 2   H  1S         -0.03012   0.05942  -0.00000   0.11516  -0.07501
  15        2S         -0.00375   0.01018  -0.00000   0.08515  -0.07898
  16 3   H  1S         -0.03012   0.05942   0.00000  -0.11516  -0.07501
  17        2S         -0.00375   0.01018   0.00000  -0.08515  -0.07898
                           6         7         8         9        10
   6        3S          0.25160
   7        3PX         0.00000   0.22863
   8        3PY         0.00000   0.00000   0.02784
   9        3PZ         0.12029   0.00000   0.00000   0.15183
  10        4S          0.01275   0.00000   0.00000   0.01311   0.00117
  11        4PX         0.00000   0.03771  -0.00000   0.00000   0.00000
  12        4PY         0.00000   0.00000   0.00077   0.00000   0.00000
  13        4PZ         0.01699   0.00000   0.00000   0.01989   0.00174
  14 2   H  1S          0.03523  -0.00000   0.04278  -0.04604  -0.00289
  15        2S         -0.01528  -0.00000   0.03164  -0.05213  -0.00410
  16 3   H  1S          0.03523   0.00000  -0.04278  -0.04604  -0.00289
  17        2S         -0.01528   0.00000  -0.03164  -0.05213  -0.00410
                          11        12        13        14        15
  11        4PX         0.00622
  12        4PY         0.00000   0.00002
  13        4PZ         0.00000   0.00000   0.00262
  14 2   H  1S         -0.00000   0.00119  -0.00547   0.11262
  15        2S         -0.00000   0.00088  -0.00662   0.07637   0.05819
  16 3   H  1S          0.00000  -0.00119  -0.00547  -0.01886  -0.02085
  17        2S          0.00000  -0.00088  -0.00662  -0.02085  -0.01370
                          16        17
  16 3   H  1S          0.11262
  17        2S          0.07637   0.05819
     Beta Density Matrix:
                           1         2         3         4         5
   1 1   C  1S          1.02868
   2        2S         -0.05001   0.14814
   3        2PX         0.00000   0.00000   0.00000
   4        2PY         0.00000  -0.00000  -0.00000   0.20174
   5        2PZ         0.02429  -0.05115   0.00000   0.00000   0.01771
   6        3S         -0.07537   0.13071  -0.00000  -0.00000  -0.04534
   7        3PX         0.00000   0.00000   0.00000  -0.00000  -0.00000
   8        3PY         0.00000  -0.00000  -0.00000   0.07495   0.00000
   9        3PZ         0.01217  -0.02389   0.00000   0.00000   0.00828
  10        4S          0.00124   0.00024  -0.00000  -0.00000  -0.00007
  11        4PX         0.00000   0.00000   0.00000  -0.00000  -0.00000
  12        4PY         0.00000  -0.00000  -0.00000   0.00208   0.00000
  13        4PZ         0.00112  -0.00195   0.00000   0.00000   0.00068
  14 2   H  1S         -0.03773   0.07606  -0.00000   0.11516  -0.02634
  15        2S         -0.01431   0.03325  -0.00000   0.08515  -0.01150
  16 3   H  1S         -0.03773   0.07606   0.00000  -0.11516  -0.02634
  17        2S         -0.01431   0.03325   0.00000  -0.08515  -0.01150
                           6         7         8         9        10
   6        3S          0.11629
   7        3PX         0.00000   0.00000
   8        3PY        -0.00000  -0.00000   0.02784
   9        3PZ        -0.02121   0.00000   0.00000   0.00387
  10        4S          0.00017  -0.00000  -0.00000  -0.00003   0.00000
  11        4PX         0.00000   0.00000  -0.00000  -0.00000   0.00000
  12        4PY        -0.00000  -0.00000   0.00077   0.00000  -0.00000
  13        4PZ        -0.00173   0.00000   0.00000   0.00032  -0.00000
  14 2   H  1S          0.06748  -0.00000   0.04278  -0.01232   0.00011
  15        2S          0.02943  -0.00000   0.03164  -0.00537   0.00005
  16 3   H  1S          0.06748   0.00000  -0.04278  -0.01232   0.00011
  17        2S          0.02943   0.00000  -0.03164  -0.00537   0.00005
                          11        12        13        14        15
  11        4PX         0.00000
  12        4PY        -0.00000   0.00002
  13        4PZ         0.00000   0.00000   0.00003
  14 2   H  1S         -0.00000   0.00119  -0.00100   0.10494
  15        2S         -0.00000   0.00088  -0.00044   0.06572   0.04341
  16 3   H  1S          0.00000  -0.00119  -0.00100  -0.02655  -0.03150
  17        2S          0.00000  -0.00088  -0.00044  -0.03150  -0.02847
                          16        17
  16 3   H  1S          0.10494
  17        2S          0.06572   0.04341
    Full Mulliken population analysis:
                           1         2         3         4         5
   1 1   C  1S          2.06491
   2        2S         -0.02552   0.33229
   3        2PX         0.00000   0.00000   0.37240
   4        2PY         0.00000   0.00000   0.00000   0.40348
   5        2PZ         0.00000   0.00000   0.00000   0.00000   0.34361
   6        3S         -0.03367   0.26904   0.00000   0.00000   0.00000
   7        3PX         0.00000   0.00000   0.16625   0.00000   0.00000
   8        3PY         0.00000   0.00000   0.00000   0.08540   0.00000
   9        3PZ         0.00000   0.00000   0.00000   0.00000   0.13110
  10        4S         -0.00003   0.00280   0.00000   0.00000   0.00000
  11        4PX         0.00000   0.00000   0.00792   0.00000   0.00000
  12        4PY         0.00000   0.00000  -0.00000   0.00069   0.00000
  13        4PZ         0.00000   0.00000   0.00000   0.00000   0.00488
  14 2   H  1S         -0.00235   0.03816   0.00000   0.08028   0.01465
  15        2S         -0.00169   0.02092   0.00000   0.04184   0.00922
  16 3   H  1S         -0.00235   0.03816   0.00000   0.08028   0.01465
  17        2S         -0.00169   0.02092   0.00000   0.04184   0.00922
                           6         7         8         9        10
   6        3S          0.36789
   7        3PX         0.00000   0.22863
   8        3PY         0.00000   0.00000   0.05569
   9        3PZ         0.00000   0.00000   0.00000   0.15570
  10        4S          0.00940   0.00000   0.00000   0.00000   0.00117
  11        4PX         0.00000   0.02220   0.00000   0.00000   0.00000
  12        4PY         0.00000  -0.00000   0.00091   0.00000   0.00000
  13        4PZ         0.00000   0.00000   0.00000   0.01190   0.00000
  14 2   H  1S          0.03924   0.00000   0.04078   0.01153  -0.00072
  15        2S          0.01005   0.00000   0.03393   0.01279  -0.00261
  16 3   H  1S          0.03924   0.00000   0.04078   0.01153  -0.00072
  17        2S          0.01005   0.00000   0.03393   0.01279  -0.00261
                          11        12        13        14        15
  11        4PX         0.00622
  12        4PY        -0.00000   0.00004
  13        4PZ         0.00000   0.00000   0.00264
  14 2   H  1S          0.00000   0.00046   0.00052   0.21756
  15        2S          0.00000   0.00070   0.00117   0.09354   0.10160
  16 3   H  1S          0.00000   0.00046   0.00052  -0.00033  -0.00539
  17        2S          0.00000   0.00070   0.00117  -0.00539  -0.01348
                          16        17
  16 3   H  1S          0.21756
  17        2S          0.09354   0.10160
     Gross orbital populations:
                         Total     Alpha     Beta      Spin
   1 1   C  1S          1.99761   0.99898   0.99863   0.00034
   2        2S          0.69679   0.37845   0.31834   0.06011
   3        2PX         0.54658   0.54658   0.00000   0.54658
   4        2PY         0.73382   0.36691   0.36691   0.00000
   5        2PZ         0.52732   0.49483   0.03249   0.46234
   6        3S          0.71126   0.40919   0.30207   0.10712
   7        3PX         0.41708   0.41708   0.00000   0.41708
   8        3PY         0.29141   0.14571   0.14571   0.00000
   9        3PZ         0.34734   0.33131   0.01603   0.31528
  10        4S          0.00668   0.00625   0.00043   0.00582
  11        4PX         0.03634   0.03634   0.00000   0.03634
  12        4PY         0.00395   0.00198   0.00198   0.00000
  13        4PZ         0.02278   0.02215   0.00063   0.02152
  14 2   H  1S          0.52792   0.27015   0.25777   0.01239
  15        2S          0.30259   0.15197   0.15062   0.00135
  16 3   H  1S          0.52792   0.27015   0.25777   0.01239
  17        2S          0.30259   0.15197   0.15062   0.00135
          Condensed to atoms (all electrons):
               1          2          3
     1  C    5.641222   0.348871   0.348871
     2  H    0.348871   0.506233  -0.024586
     3  H    0.348871  -0.024586   0.506233
          Atomic-Atomic Spin Densities.
               1          2          3
     1  C    2.031983  -0.029725  -0.029725
     2  H   -0.029725   0.036488   0.006971
     3  H   -0.029725   0.006971   0.036488
 Mulliken charges and spin densities:
               1          2
     1  C   -0.338964   1.972533
     2  H    0.169482   0.013734
     3  H    0.169482   0.013734
 Sum of Mulliken charges =  -0.00000   2.00000
 Mulliken charges and spin densities with hydrogens summed into heavy atoms:
               1          2
     1  C   -0.000000   2.000000

 Bonding Mulliken population analysis:
     Alpha  Bonding Density Matrix:
                           1         2         3         4         5
   1 1   C  1S          0.00000
   2        2S          0.00000   0.00000
   3        2PX         0.00000   0.00000   0.00000
   4        2PY         0.00000   0.00000   0.00000   0.00000
   5        2PZ         0.00000   0.00000   0.00000   0.00000   0.00000
   6        3S          0.00000   0.00000   0.00000   0.00000   0.00000
   7        3PX         0.00000   0.00000   0.00000   0.00000   0.00000
   8        3PY         0.00000   0.00000   0.00000   0.00000   0.00000
   9        3PZ         0.00000   0.00000   0.00000   0.00000   0.00000
  10        4S          0.00000   0.00000   0.00000   0.00000   0.00000
  11        4PX         0.00000   0.00000   0.00000   0.00000   0.00000
  12        4PY         0.00000   0.00000   0.00000   0.00000   0.00000
  13        4PZ         0.00000   0.00000   0.00000   0.00000   0.00000
  14 2   H  1S         -0.03012   0.05942  -0.00000   0.11516  -0.07501
  15        2S         -0.00375   0.01018  -0.00000   0.08515  -0.07898
  16 3   H  1S         -0.03012   0.05942   0.00000  -0.11516  -0.07501
  17        2S         -0.00375   0.01018   0.00000  -0.08515  -0.07898
                           6         7         8         9        10
   6        3S          0.00000
   7        3PX         0.00000   0.00000
   8        3PY         0.00000   0.00000   0.00000
   9        3PZ         0.00000   0.00000   0.00000   0.00000
  10        4S          0.00000   0.00000   0.00000   0.00000   0.00000
  11        4PX         0.00000   0.00000   0.00000   0.00000   0.00000
  12        4PY         0.00000   0.00000   0.00000   0.00000   0.00000
  13        4PZ         0.00000   0.00000   0.00000   0.00000   0.00000
  14 2   H  1S          0.03523  -0.00000   0.04278  -0.04604  -0.00289
  15        2S         -0.01528  -0.00000   0.03164  -0.05213  -0.00410
  16 3   H  1S          0.03523   0.00000  -0.04278  -0.04604  -0.00289
  17        2S         -0.01528   0.00000  -0.03164  -0.05213  -0.00410
                          11        12        13        14        15
  11        4PX         0.00000
  12        4PY         0.00000   0.00000
  13        4PZ         0.00000   0.00000   0.00000
  14 2   H  1S         -0.00000   0.00119  -0.00547   0.00000
  15        2S         -0.00000   0.00088  -0.00662   0.00000   0.00000
  16 3   H  1S          0.00000  -0.00119  -0.00547  -0.01886  -0.02085
  17        2S          0.00000  -0.00088  -0.00662  -0.02085  -0.01370
                          16        17
  16 3   H  1S          0.00000
  17        2S          0.00000   0.00000
     Beta  Bonding Density Matrix:
                           1         2         3         4         5
   1 1   C  1S          0.00000
   2        2S          0.00000   0.00000
   3        2PX         0.00000   0.00000   0.00000
   4        2PY         0.00000   0.00000   0.00000   0.00000
   5        2PZ         0.00000   0.00000   0.00000   0.00000   0.00000
   6        3S          0.00000   0.00000   0.00000   0.00000   0.00000
   7        3PX         0.00000   0.00000   0.00000   0.00000   0.00000
   8        3PY         0.00000   0.00000   0.00000   0.00000   0.00000
   9        3PZ         0.00000   0.00000   0.00000   0.00000   0.00000
  10        4S          0.00000   0.00000   0.00000   0.00000   0.00000
  11        4PX         0.00000   0.00000   0.00000   0.00000   0.00000
  12        4PY         0.00000   0.00000   0.00000   0.00000   0.00000
  13        4PZ         0.00000   0.00000   0.00000   0.00000   0.00000
  14 2   H  1S         -0.03773   0.07606  -0.00000   0.11516  -0.02634
  15        2S         -0.01431   0.03325  -0.00000   0.08515  -0.01150
  16 3   H  1S         -0.03773   0.07606   0.00000  -0.11516  -0.02634
  17        2S         -0.01431   0.03325   0.00000  -0.08515  -0.01150
                           6         7         8         9        10
   6        3S          0.00000
   7        3PX         0.00000   0.00000
   8        3PY         0.00000   0.00000   0.00000
   9        3PZ         0.00000   0.00000   0.00000   0.00000
  10        4S          0.00000   0.00000   0.00000   0.00000   0.00000
  11        4PX         0.00000   0.00000   0.00000   0.00000   0.00000
  12        4PY         0.00000   0.00000   0.00000   0.00000   0.00000
  13        4PZ         0.00000   0.00000   0.00000   0.00000   0.00000
  14 2   H  1S          0.06748  -0.00000   0.04278  -0.01232   0.00011
  15        2S          0.02943  -0.00000   0.03164  -0.00537   0.00005
  16 3   H  1S          0.06748   0.00000  -0.04278  -0.01232   0.00011
  17        2S          0.02943   0.00000  -0.03164  -0.00537   0.00005
                          11        12        13        14        15
  11        4PX         0.00000
  12        4PY         0.00000   0.00000
  13        4PZ         0.00000   0.00000   0.00000
  14 2   H  1S         -0.00000   0.00119  -0.00100   0.00000
  15        2S         -0.00000   0.00088  -0.00044   0.00000   0.00000
  16 3   H  1S          0.00000  -0.00119  -0.00100  -0.02655  -0.03150
  17        2S          0.00000  -0.00088  -0.00044  -0.03150  -0.02847
                          16        17
  16 3   H  1S          0.00000
  17        2S          0.00000   0.00000
    Full Bonding Mulliken population analysis:
                           1         2         3         4         5
   1 1   C  1S          0.00000
   2        2S          0.00000   0.00000
   3        2PX         0.00000   0.00000   0.00000
   4        2PY         0.00000   0.00000   0.00000   0.00000
   5        2PZ         0.00000   0.00000   0.00000   0.00000   0.00000
   6        3S          0.00000   0.00000   0.00000   0.00000   0.00000
   7        3PX         0.00000   0.00000   0.00000   0.00000   0.00000
   8        3PY         0.00000   0.00000   0.00000   0.00000   0.00000
   9        3PZ         0.00000   0.00000   0.00000   0.00000   0.00000
  10        4S          0.00000   0.00000   0.00000   0.00000   0.00000
  11        4PX         0.00000   0.00000   0.00000   0.00000   0.00000
  12        4PY         0.00000   0.00000   0.00000   0.00000   0.00000
  13        4PZ         0.00000   0.00000   0.00000   0.00000   0.00000
  14 2   H  1S         -0.00235   0.03816   0.00000   0.08028   0.01465
  15        2S         -0.00169   0.02092   0.00000   0.04184   0.00922
  16 3   H  1S         -0.00235   0.03816   0.00000   0.08028   0.01465
  17        2S         -0.00169   0.02092   0.00000   0.04184   0.00922
                           6         7         8         9        10
   6        3S          0.00000
   7        3PX         0.00000   0.00000
   8        3PY         0.00000   0.00000   0.00000
   9        3PZ         0.00000   0.00000   0.00000   0.00000
  10        4S          0.00000   0.00000   0.00000   0.00000   0.00000
  11        4PX         0.00000   0.00000   0.00000   0.00000   0.00000
  12        4PY         0.00000   0.00000   0.00000   0.00000   0.00000
  13        4PZ         0.00000   0.00000   0.00000   0.00000   0.00000
  14 2   H  1S          0.03924   0.00000   0.04078   0.01153  -0.00072
  15        2S          0.01005   0.00000   0.03393   0.01279  -0.00261
  16 3   H  1S          0.03924   0.00000   0.04078   0.01153  -0.00072
  17        2S          0.01005   0.00000   0.03393   0.01279  -0.00261
                          11        12        13        14        15
  11        4PX         0.00000
  12        4PY         0.00000   0.00000
  13        4PZ         0.00000   0.00000   0.00000
  14 2   H  1S          0.00000   0.00046   0.00052   0.00000
  15        2S          0.00000   0.00070   0.00117   0.00000   0.00000
  16 3   H  1S          0.00000   0.00046   0.00052  -0.00033  -0.00539
  17        2S          0.00000   0.00070   0.00117  -0.00539  -0.01348
                          16        17
  16 3   H  1S          0.00000
  17        2S          0.00000   0.00000
     Bonding Gross orbital populations:
                         Total     Alpha     Beta      Spin
   1 1   C  1S         -0.00808  -0.00279  -0.00529   0.00250
   2        2S          0.11817   0.04329   0.07489  -0.03160
   3        2PX         0.00000   0.00000   0.00000   0.00000
   4        2PY         0.24425   0.12212   0.12212   0.00000
   5        2PZ         0.04774   0.03778   0.00996   0.02782
   6        3S          0.09859   0.00522   0.09337  -0.08815
   7        3PX         0.00000   0.00000   0.00000   0.00000
   8        3PY         0.14941   0.07471   0.07471   0.00000
   9        3PZ         0.04864   0.04138   0.00726   0.03412
  10        4S         -0.00666  -0.00678   0.00012  -0.00690
  11        4PX         0.00000   0.00000   0.00000   0.00000
  12        4PY         0.00231   0.00116   0.00116   0.00000
  13        4PZ         0.00337   0.00306   0.00031   0.00276
  14 2   H  1S          0.21683   0.10726   0.10957  -0.00231
  15        2S          0.10745   0.04351   0.06395  -0.02044
  16 3   H  1S          0.21683   0.10726   0.10957  -0.00231
  17        2S          0.10745   0.04351   0.06395  -0.02044
          Bonding Condensed to atoms (all electrons):
               1          2          3
     1  C    0.000000   0.348871   0.348871
     2  H    0.348871   0.000000  -0.024586
     3  H    0.348871  -0.024586   0.000000
          Bonding Atomic-Atomic Spin Densities.
               1          2          3
     1  C    0.000000  -0.029725  -0.029725
     2  H   -0.029725   0.000000   0.006971
     3  H   -0.029725   0.006971   0.000000
 Bonding Mulliken charges and spin densities:
               1          2
     1  C    5.302258  -0.059450
     2  H    0.675715  -0.022754
     3  H    0.675715  -0.022754
 Sum of Bonding Mulliken charges =   6.65369  -0.10496
 Bonding Mulliken charges and spin densities with hydrogens summed into heavy atoms:
               1          2
     1  C    6.653689  -0.104959
 Electronic spatial extent (au):  <R**2>=             24.4168
 Charge=             -0.0000 electrons
 Dipole moment (field-independent basis, Debye):
    X=             -0.0000    Y=             -0.0000    Z=             -0.6584  Tot=              0.6584
 Quadrupole moment (field-independent basis, Debye-Ang):
   XX=             -8.3266   YY=             -5.9668   ZZ=             -7.8059
   XY=              0.0000   XZ=              0.0000   YZ=             -0.0000
 Traceless Quadrupole moment (field-independent basis, Debye-Ang):
   XX=             -0.9601   YY=              1.3996   ZZ=             -0.4395
   XY=              0.0000   XZ=              0.0000   YZ=             -0.0000
 Octapole moment (field-independent basis, Debye-Ang**2):
  XXX=              0.0000  YYY=              0.0000  ZZZ=             -1.0661  XYY=             -0.0000
  XXY=             -0.0000  XXZ=             -0.3841  XZZ=              0.0000  YZZ=             -0.0000
  YYZ=             -0.8751  XYZ=             -0.0000
 Hexadecapole moment (field-independent basis, Debye-Ang**3):
 XXXX=            -10.7719 YYYY=            -13.7894 ZZZZ=            -10.7751 XXXY=             -0.0000
 XXXZ=             -0.0000 YYYX=             -0.0000 YYYZ=             -0.0000 ZZZX=             -0.0000
 ZZZY=             -0.0000 XXYY=             -4.5467 XXZZ=             -3.6018 YYZZ=             -4.2781
 XXYZ=             -0.0000 YYXZ=              0.0000 ZZXY=             -0.0000
 N-N= 6.159724586919D+00 E-N=-1.027704380773D+02  KE= 3.892263401884D+01
 Symmetry A1   KE= 3.582750755798D+01
 Symmetry A2   KE= 0.000000000000D+00
 Symmetry B1   KE= 1.139103572782D+00
 Symmetry B2   KE= 1.956022888073D+00
 Symmetry A1   SP= 1.000000000000D+00
 Symmetry A2   SP= 0.000000000000D+00
 Symmetry B1   SP= 1.000000000000D+00
 Symmetry B2   SP=-1.933194478971D-17
     Alpha  MBS Density Matrix:
                           1         2         3         4         5
   1 1   C  1S          1.04871
   2        2S         -0.18008   0.72212
   3        2PX         0.00000  -0.00000   1.00000
   4        2PY         0.00000  -0.00000  -0.00000   0.31014
   5        2PZ        -0.06372   0.33862   0.00000  -0.00000   0.76786
   6 2   H  1S         -0.04389   0.08788  -0.00000   0.22753  -0.20154
   7 3   H  1S         -0.04389   0.08788   0.00000  -0.22753  -0.20154
                           6         7
   6 2   H  1S          0.27456
   7 3   H  1S         -0.05929   0.27456
     Beta  MBS Density Matrix:
                           1         2         3         4         5
   1 1   C  1S          1.03568
   2        2S         -0.11974   0.44270
   3        2PX         0.00000  -0.00000   0.00000
   4        2PY         0.00000  -0.00000  -0.00000   0.31014
   5        2PZ         0.03432  -0.11541   0.00000   0.00000   0.03010
   6 2   H  1S         -0.06434   0.18259  -0.00000   0.22753  -0.04765
   7 3   H  1S         -0.06434   0.18259   0.00000  -0.22753  -0.04765
                           6         7
   6 2   H  1S          0.24245
   7 3   H  1S         -0.09140   0.24245
    Full MBS Mulliken population analysis:
                           1         2         3         4         5
   1 1   C  1S          2.08439
   2        2S         -0.07446   1.16482
   3        2PX         0.00000   0.00000   1.00000
   4        2PY         0.00000   0.00000   0.00000   0.62028
   5        2PZ         0.00000   0.00000   0.00000   0.00000   0.79796
   6 2   H  1S         -0.00694   0.13470   0.00000   0.19822   0.04501
   7 3   H  1S         -0.00694   0.13470  -0.00000   0.19822   0.04501
                           6         7
   6 2   H  1S          0.51701
   7 3   H  1S         -0.01825   0.51701
     MBS Gross orbital populations:
                         Total     Alpha     Beta      Spin
   1 1   C  1S          1.99604   0.99836   0.99769   0.00067
   2        2S          1.35975   0.76492   0.59482   0.17010
   3        2PX         1.00000   1.00000   0.00000   1.00000
   4        2PY         1.01672   0.50836   0.50836   0.00000
   5        2PZ         0.88799   0.84068   0.04731   0.79337
   6 2   H  1S          0.86975   0.44384   0.42591   0.01793
   7 3   H  1S          0.86975   0.44384   0.42591   0.01793
          MBS Condensed to atoms (all electrons):
               1          2          3
     1  C    5.518525   0.370989   0.370989
     2  H    0.370989   0.517009  -0.018248
     3  H    0.370989  -0.018248   0.517009
          MBS Atomic-Atomic Spin Densities.
               1          2          3
     1  C    2.000241  -0.018055  -0.018055
     2  H   -0.018055   0.032102   0.003888
     3  H   -0.018055   0.003888   0.032102
 MBS Mulliken charges and spin densities:
               1          2
     1  C   -0.260502   1.964131
     2  H    0.130251   0.017935
     3  H    0.130251   0.017935
 Sum of MBS Mulliken charges =   0.00000   2.00000
 MBS Mulliken charges and spin densities with hydrogens summed into heavy atoms:
               1          2
     1  C    0.000000   2.000000
 MBS Atomic Valencies and Mayer Atomic Bond Orders:
               1          2          3
     1  C    1.904422   0.952211   0.952211
     2  H    0.952211   0.965100   0.012889
     3  H    0.952211   0.012889   0.965100
 MBS Mayer-style numbers of lone pairs (3.017 valence pairs, 1.100 lone pairs):
               1
     1  C    1.204620
     2  H   -0.052240
     3  H   -0.052240
 BEBO parameters in MulMin, MxElBE=  0:
 ELP=  0.00000000000     EBEBO=  0.00000000000     Sum=  0.00000000000    
 ELP=  0.00000000000     EBEBO=  0.00000000000     EJK=  0.00000000000      0.00000000000     Sum=  0.00000000000    
 0 EA=  0.00000000000     EB=  0.00000000000     ETot=  0.00000000000    
 1 EA=  0.00000000000     EB=  0.00000000000     ETot=  0.00000000000    
 2 EA=  0.00000000000     EB=  0.00000000000     ETot=  0.00000000000    
 3 EJ=  0.00000000000     EK=  0.00000000000     ETot=  0.00000000000    
 4 EJ=  0.00000000000     EK=  0.00000000000     ETot=  0.00000000000    
 5 EA=  0.00000000000     EB=  0.00000000000     ETot=  0.00000000000    
 Orbital energies and kinetic energies (alpha):
                                 1                 2
   1         (A1)--O         -11.241992         16.033441
   2         (A1)--O          -0.831726          1.269601
   3         (B2)--O          -0.598176          0.978011
   4         (A1)--O          -0.098711          1.221424
   5         (B1)--O          -0.073155          1.139104
   6         (A1)--V           0.101206          0.240726
   7         (B2)--V           0.117009          0.181082
   8         (A1)--V           0.135144          0.218048
   9         (B1)--V           0.139213          0.225984
  10         (A1)--V           0.300116          0.845749
  11         (B2)--V           0.373707          0.747812
  12         (A1)--V           0.876480          2.057466
  13         (B2)--V           0.879796          1.899192
  14         (B1)--V           0.889376          2.181204
  15         (A1)--V           1.022555          1.918725
  16         (A1)--V           1.222058          2.708083
  17         (B2)--V           1.345358          2.875962
 Total kinetic energy from orbitals= 4.128316151868D+01
                          Isotropic Fermi Contact Couplings
        Atom                 a.u.       MegaHertz       Gauss      10(-4) cm-1
     1  C(13)              0.39494     221.99356      79.21282      74.04908
     2  H(1)               0.01245      27.83277       9.93142       9.28401
     3  H(1)               0.01245      27.83277       9.93142       9.28401
 --------------------------------------------------------
       Center         ----  Spin Dipole Couplings  ----
                      3XX-RR        3YY-RR        3ZZ-RR
 --------------------------------------------------------
     1   Atom        0.655779     -1.031990      0.376211
     2   Atom       -0.056067      0.097198     -0.041131
     3   Atom       -0.056067      0.097198     -0.041131
 --------------------------------------------------------
                        XY            XZ            YZ
 --------------------------------------------------------
     1   Atom        0.000000      0.000000     -0.000000
     2   Atom        0.000000      0.000000     -0.079736
     3   Atom        0.000000      0.000000      0.079736
 --------------------------------------------------------


 ---------------------------------------------------------------------------------
              Anisotropic Spin Dipole Couplings in Principal Axis System
 ---------------------------------------------------------------------------------

       Atom             a.u.   MegaHertz   Gauss  10(-4) cm-1        Axes

              Baa    -1.0320  -138.483   -49.414   -46.193 -0.0000  1.0000 -0.0000
     1 C(13)  Bbb     0.3762    50.484    18.014    16.840  0.0000  0.0000  1.0000
              Bcc     0.6558    87.999    31.400    29.353  1.0000 -0.0000  0.0000
 
              Baa    -0.0775   -41.361   -14.759   -13.797 -0.0000  0.4152  0.9097
     2 H(1)   Bbb    -0.0561   -29.915   -10.674    -9.978  1.0000  0.0000  0.0000
              Bcc     0.1336    71.276    25.433    23.775 -0.0000  0.9097 -0.4152
 
              Baa    -0.0775   -41.361   -14.759   -13.797 -0.0000 -0.4152  0.9097
     3 H(1)   Bbb    -0.0561   -29.915   -10.674    -9.978  1.0000 -0.0000  0.0000
              Bcc     0.1336    71.276    25.433    23.775  0.0000  0.9097  0.4152
 

 ---------------------------------------------------------------------------------

 No NMR shielding tensors so no spin-rotation constants.
 Leave Link  601 at Sat Jul 13 20:15:52 2024, MaxMem=   104857600 cpu:               0.1 elap:               0.1
 (Enter /ihome/crc/install/gaussian/c01/avx2/tar/g16/l9999.exe)

 Test job not archived.
 1\1\GINC-SMP-N166\SP\ROHF\6-31+G\C1H2(3)\BLZ11\13-Jul-2024\0\\#P SP RO
 HF/6-31+G Pop=(Full) scf=tight IOp(6/27=122)\\CH2_3\\0,3\C,0,0.122391,
 0.,0.088352\H,0,-0.125474,0.,1.136866\H,0,1.039556,0.,-0.477002\\Versi
 on=ES64L-G16RevC.01\State=3-B1\HF=-38.9091026\RMSD=4.929e-09\Dipole=0.
 2100302,0.,0.151618\Quadrupole=0.1416893,-0.7138477,0.5721584,0.,-0.64
 89099,0.\PG=C02V [C2(C1),SGV(H2)]\\@


 CURIOUSER AND CURIOUSER

                  -- ALICE, IN WONDERLAND
 Job cpu time:       0 days  0 hours  0 minutes  0.5 seconds.
 Elapsed time:       0 days  0 hours  0 minutes  0.6 seconds.
 File lengths (MBytes):  RWF=      6 Int=      0 D2E=      0 Chk=      1 Scr=      1
 Normal termination of Gaussian 16 at Sat Jul 13 20:15:52 2024.
/var/spool/slurmd/job16194846/slurm_script: line 22: crc-job-stats.py: command not found
