 Entering Gaussian System, Link 0=g16
 Initial command:
 /ihome/crc/install/gaussian/c01/avx2/tar/g16/l1.exe "/scratch/slurm-16169847/Gau-27749.inp" -scrdir="/scratch/slurm-16169847/"
 Entering Link 1 = /ihome/crc/install/gaussian/c01/avx2/tar/g16/l1.exe PID=     27763.
  
 Copyright (c) 1988-2019, Gaussian, Inc.  All Rights Reserved.
  
 This is part of the Gaussian(R) 16 program.  It is based on
 the Gaussian(R) 09 system (copyright 2009, Gaussian, Inc.),
 the Gaussian(R) 03 system (copyright 2003, Gaussian, Inc.),
 the Gaussian(R) 98 system (copyright 1998, Gaussian, Inc.),
 the Gaussian(R) 94 system (copyright 1995, Gaussian, Inc.),
 the Gaussian 92(TM) system (copyright 1992, Gaussian, Inc.),
 the Gaussian 90(TM) system (copyright 1990, Gaussian, Inc.),
 the Gaussian 88(TM) system (copyright 1988, Gaussian, Inc.),
 the Gaussian 86(TM) system (copyright 1986, Carnegie Mellon
 University), and the Gaussian 82(TM) system (copyright 1983,
 Carnegie Mellon University). Gaussian is a federally registered
 trademark of Gaussian, Inc.
  
 This software contains proprietary and confidential information,
 including trade secrets, belonging to Gaussian, Inc.
  
 This software is provided under written license and may be
 used, copied, transmitted, or stored only in accord with that
 written license.
  
 The following legend is applicable only to US Government
 contracts under FAR:
  
                    RESTRICTED RIGHTS LEGEND
  
 Use, reproduction and disclosure by the US Government is
 subject to restrictions as set forth in subparagraphs (a)
 and (c) of the Commercial Computer Software - Restricted
 Rights clause in FAR 52.227-19.
  
 Gaussian, Inc.
 340 Quinnipiac St., Bldg. 40, Wallingford CT 06492
  
  
 ---------------------------------------------------------------
 Warning -- This program may not be used in any manner that
 competes with the business of Gaussian, Inc. or will provide
 assistance to any competitor of Gaussian, Inc.  The licensee
 of this program is prohibited from giving any competitor of
 Gaussian, Inc. access to this program.  By using this program,
 the user acknowledges that Gaussian, Inc. is engaged in the
 business of creating and licensing software in the field of
 computational chemistry and represents and warrants to the
 licensee that it is not a competitor of Gaussian, Inc. and that
 it will not use this program in any manner prohibited above.
 ---------------------------------------------------------------
  

 Cite this work as:
 Gaussian 16, Revision C.01,
 M. J. Frisch, G. W. Trucks, H. B. Schlegel, G. E. Scuseria, 
 M. A. Robb, J. R. Cheeseman, G. Scalmani, V. Barone, 
 G. A. Petersson, H. Nakatsuji, X. Li, M. Caricato, A. V. Marenich, 
 J. Bloino, B. G. Janesko, R. Gomperts, B. Mennucci, H. P. Hratchian, 
 J. V. Ortiz, A. F. Izmaylov, J. L. Sonnenberg, D. Williams-Young, 
 F. Ding, F. Lipparini, F. Egidi, J. Goings, B. Peng, A. Petrone, 
 T. Henderson, D. Ranasinghe, V. G. Zakrzewski, J. Gao, N. Rega, 
 G. Zheng, W. Liang, M. Hada, M. Ehara, K. Toyota, R. Fukuda, 
 J. Hasegawa, M. Ishida, T. Nakajima, Y. Honda, O. Kitao, H. Nakai, 
 T. Vreven, K. Throssell, J. A. Montgomery, Jr., J. E. Peralta, 
 F. Ogliaro, M. J. Bearpark, J. J. Heyd, E. N. Brothers, K. N. Kudin, 
 V. N. Staroverov, T. A. Keith, R. Kobayashi, J. Normand, 
 K. Raghavachari, A. P. Rendell, J. C. Burant, S. S. Iyengar, 
 J. Tomasi, M. Cossi, J. M. Millam, M. Klene, C. Adamo, R. Cammi, 
 J. W. Ochterski, R. L. Martin, K. Morokuma, O. Farkas, 
 J. B. Foresman, and D. J. Fox, Gaussian, Inc., Wallingford CT, 2019.
 
 ******************************************
 Gaussian 16:  ES64L-G16RevC.01  3-Jul-2019
                12-Jul-2024 
 ******************************************
 ---------------------------------------------------
 # SP ROHF/6-31+G Pop=(Full) scf=tight IOp(6/27=122)
 ---------------------------------------------------
 1/38=1,172=1/1;
 2/12=2,17=6,18=5,40=1/2;
 3/5=1,6=6,7=10,11=2,25=1,30=1,116=101/1,2,3;
 4//1;
 5/5=2,32=2,38=5/2;
 6/7=3,27=122,28=1/1;
 99/5=1,9=1/99;
 ----
 CH_4
 ----
 Symbolic Z-matrix:
 Charge =  0 Multiplicity = 4
 C                     0.        0.       -0.00055 
 H                     0.        0.        1.09255 
 
                          Input orientation:                          
 ---------------------------------------------------------------------
 Center     Atomic      Atomic             Coordinates (Angstroms)
 Number     Number       Type             X           Y           Z
 ---------------------------------------------------------------------
      1          6           0        0.000000    0.000000   -0.000549
      2          1           0        0.000000    0.000000    1.092549
 ---------------------------------------------------------------------
 Stoichiometry    CH(4)
 Framework group  C*V[C*(HC)]
 Deg. of freedom     1
 Full point group                 C*V     NOp   4
 Largest Abelian subgroup         C2V     NOp   4
 Largest concise Abelian subgroup C1      NOp   1
                         Standard orientation:                         
 ---------------------------------------------------------------------
 Center     Atomic      Atomic             Coordinates (Angstroms)
 Number     Number       Type             X           Y           Z
 ---------------------------------------------------------------------
      1          6           0        0.000000    0.000000    0.156157
      2          1           0        0.000000    0.000000   -0.936941
 ---------------------------------------------------------------------
 Rotational constants (GHZ):           0.0000000         454.9223750         454.9223750
 Standard basis: 6-31+G (6D, 7F)
 There are     9 symmetry adapted cartesian basis functions of A1  symmetry.
 There are     0 symmetry adapted cartesian basis functions of A2  symmetry.
 There are     3 symmetry adapted cartesian basis functions of B1  symmetry.
 There are     3 symmetry adapted cartesian basis functions of B2  symmetry.
 There are     9 symmetry adapted basis functions of A1  symmetry.
 There are     0 symmetry adapted basis functions of A2  symmetry.
 There are     3 symmetry adapted basis functions of B1  symmetry.
 There are     3 symmetry adapted basis functions of B2  symmetry.
    15 basis functions,    30 primitive gaussians,    15 cartesian basis functions
     5 alpha electrons        2 beta electrons
       nuclear repulsion energy         2.9046464869 Hartrees.
 NAtoms=    2 NActive=    2 NUniq=    2 SFac= 1.00D+00 NAtFMM=   60 NAOKFM=F Big=F
 Integral buffers will be    131072 words long.
 Raffenetti 2 integral format.
 Two-electron integral symmetry is turned on.
 One-electron integrals computed using PRISM.
 NBasis=    15 RedAO= T EigKep=  4.48D-02  NBF=     9     0     3     3
 NBsUse=    15 1.00D-06 EigRej= -1.00D+00 NBFU=     9     0     3     3
 ExpMin= 4.38D-02 ExpMax= 3.05D+03 ExpMxC= 4.57D+02 IAcc=3 IRadAn=         5 AccDes= 0.00D+00
 Harris functional with IExCor=  205 and IRadAn=       5 diagonalized for initial guess.
 HarFok:  IExCor=  205 AccDes= 0.00D+00 IRadAn=         5 IDoV= 1 UseB2=F ITyADJ=14
 ICtDFT=  3500011 ScaDFX=  1.000000  1.000000  1.000000  1.000000
 FoFCou: FMM=F IPFlag=           0 FMFlag=      100000 FMFlg1=           0
         NFxFlg=           0 DoJE=T BraDBF=F KetDBF=T FulRan=T
         wScrn=  0.000000 ICntrl=       500 IOpCl=  0 I1Cent=   200000004 NGrid=           0
         NMat0=    1 NMatS0=      1 NMatT0=    0 NMatD0=    1 NMtDS0=    0 NMtDT0=    0
 Petite list used in FoFCou.
 Initial guess orbital symmetries:
       Occupied  (SG) (SG) (SG) (PI) (PI)
       Virtual   (SG) (SG) (PI) (PI) (SG) (SG) (PI) (PI) (SG) (SG)
 The electronic state of the initial guess is 4-SG.
 Keep R1 and R2 ints in memory in symmetry-blocked form, NReq=812299.
 Requested convergence on RMS density matrix=1.00D-08 within 128 cycles.
 Requested convergence on MAX density matrix=1.00D-06.
 Requested convergence on             energy=1.00D-06.
 No special actions if energy rises.
 SCF Done:  E(ROHF) =  -38.2717895702     A.U. after   15 cycles
            NFock= 15  Conv=0.62D-08     -V/T= 2.0002
 <Sx>= 0.0000 <Sy>= 0.0000 <Sz>= 1.5000 <S**2>= 3.7500 S= 1.5000
 <L.S>=  0.00000000000    
 Annihilation of the first spin contaminant:
 S**2 before annihilation     3.7500,   after     3.7500

 **********************************************************************

            Population analysis using the SCF Density.

 **********************************************************************

 Orbital symmetries:
       Occupied  (SG) (SG) (SG) (PI) (PI)
       Virtual   (SG) (SG) (PI) (PI) (SG) (SG) (PI) (PI) (SG) (SG)
 The electronic state is 4-SG.
 Alpha  occ. eigenvalues --  -11.25646  -0.75482  -0.17350  -0.07011  -0.07011
 Alpha virt. eigenvalues --    0.10288   0.12517   0.13616   0.13616   0.33252
 Alpha virt. eigenvalues --    0.86388   0.87796   0.87796   1.02746   1.24310
     Molecular Orbital Coefficients:
                           1         2         3         4         5
                           O         O         O         O         O
     Eigenvalues --   -11.25646  -0.75482  -0.17350  -0.07011  -0.07011
   1 1   C  1S          0.99666  -0.16619  -0.14375   0.00000   0.00000
   2        2S          0.02183   0.33890   0.33024   0.00000   0.00000
   3        2PX         0.00000   0.00000   0.00000   0.63670   0.00000
   4        2PY         0.00000   0.00000   0.00000   0.00000   0.63670
   5        2PZ        -0.00066  -0.24448   0.46242   0.00000   0.00000
   6        3S         -0.01020   0.30799   0.46792   0.00000   0.00000
   7        3PX         0.00000   0.00000   0.00000   0.45912   0.00000
   8        3PY         0.00000   0.00000   0.00000   0.00000   0.45912
   9        3PZ         0.00017  -0.09386   0.22825   0.00000   0.00000
  10        4S          0.00178  -0.00009   0.02438   0.00000   0.00000
  11        4PX         0.00000   0.00000   0.00000   0.06242   0.00000
  12        4PY         0.00000   0.00000   0.00000   0.00000   0.06242
  13        4PZ         0.00036  -0.00205   0.00924   0.00000   0.00000
  14 2   H  1S         -0.00013   0.29549  -0.17594   0.00000   0.00000
  15        2S          0.00215   0.16621  -0.19263   0.00000   0.00000
                           6         7         8         9        10
                           V         V         V         V         V
     Eigenvalues --     0.10288   0.12517   0.13616   0.13616   0.33252
   1 1   C  1S          0.06578   0.03734   0.00000   0.00000   0.07028
   2        2S         -0.04393  -0.01828   0.00000   0.00000  -0.03647
   3        2PX         0.00000   0.00000   0.00000  -0.15151   0.00000
   4        2PY         0.00000   0.00000  -0.15151   0.00000   0.00000
   5        2PZ         0.07441  -0.09652   0.00000   0.00000   0.27097
   6        3S         -0.67632  -0.47833   0.00000   0.00000  -1.39449
   7        3PX         0.00000   0.00000   0.00000  -0.43646   0.00000
   8        3PY         0.00000   0.00000  -0.43646   0.00000   0.00000
   9        3PZ         0.04151  -0.26226   0.00000   0.00000   1.31107
  10        4S          1.38604   0.51279   0.00000   0.00000  -0.65715
  11        4PX         0.00000   0.00000   0.00000   1.17108   0.00000
  12        4PY         0.00000   0.00000   1.17108   0.00000   0.00000
  13        4PZ        -0.49621   1.10316   0.00000   0.00000   0.30515
  14 2   H  1S         -0.01165   0.02484   0.00000   0.00000   0.12953
  15        2S         -0.27254   0.21503   0.00000   0.00000   2.60200
                          11        12        13        14        15
                           V         V         V         V         V
     Eigenvalues --     0.86388   0.87796   0.87796   1.02746   1.24310
   1 1   C  1S          0.02103   0.00000   0.00000   0.02030  -0.04495
   2        2S         -0.06042   0.00000   0.00000  -1.87138   0.58258
   3        2PX         0.00000  -1.07565   0.00000   0.00000   0.00000
   4        2PY         0.00000   0.00000  -1.07565   0.00000   0.00000
   5        2PZ        -0.98473   0.00000   0.00000  -0.05820  -0.58270
   6        3S         -0.20542   0.00000   0.00000   2.63892  -1.14868
   7        3PX         0.00000   1.39967   0.00000   0.00000   0.00000
   8        3PY         0.00000   0.00000   1.39967   0.00000   0.00000
   9        3PZ         1.68215   0.00000   0.00000  -0.31492   0.63642
  10        4S         -0.08114   0.00000   0.00000  -0.75810  -0.36811
  11        4PX         0.00000  -0.51309   0.00000   0.00000   0.00000
  12        4PY         0.00000   0.00000  -0.51309   0.00000   0.00000
  13        4PZ        -0.50630   0.00000   0.00000   0.00114   0.31682
  14 2   H  1S          0.36055   0.00000   0.00000  -0.37708  -1.32674
  15        2S          0.27179   0.00000   0.00000  -0.26235   2.11643
     Alpha Density Matrix:
                           1         2         3         4         5
   1 1   C  1S          1.04162
   2        2S         -0.08204   0.22438
   3        2PX         0.00000   0.00000   0.40538
   4        2PY         0.00000   0.00000   0.00000   0.40538
   5        2PZ        -0.02650   0.06984   0.00000   0.00000   0.27360
   6        3S         -0.12862   0.25868   0.00000   0.00000   0.14109
   7        3PX         0.00000   0.00000   0.29232   0.00000   0.00000
   8        3PY         0.00000   0.00000   0.00000   0.29232   0.00000
   9        3PZ        -0.01704   0.04357   0.00000   0.00000   0.12849
  10        4S         -0.00172   0.00806   0.00000   0.00000   0.01130
  11        4PX         0.00000   0.00000   0.03974   0.00000   0.00000
  12        4PY         0.00000   0.00000   0.00000   0.03974   0.00000
  13        4PZ        -0.00062   0.00236   0.00000   0.00000   0.00477
  14 2   H  1S         -0.02394   0.04204   0.00000   0.00000  -0.15360
  15        2S          0.00221  -0.00724   0.00000   0.00000  -0.12971
                           6         7         8         9        10
   6        3S          0.31391
   7        3PX         0.00000   0.21079
   8        3PY         0.00000   0.00000   0.21079
   9        3PZ         0.07789   0.00000   0.00000   0.06091
  10        4S          0.01136   0.00000   0.00000   0.00557   0.00060
  11        4PX         0.00000   0.02866   0.00000   0.00000   0.00000
  12        4PY         0.00000   0.00000   0.02866   0.00000   0.00000
  13        4PZ         0.00369   0.00000   0.00000   0.00230   0.00023
  14 2   H  1S          0.00868   0.00000   0.00000  -0.06789  -0.00432
  15        2S         -0.03897   0.00000   0.00000  -0.05957  -0.00471
                          11        12        13        14        15
  11        4PX         0.00390
  12        4PY         0.00000   0.00390
  13        4PZ         0.00000   0.00000   0.00009
  14 2   H  1S          0.00000   0.00000  -0.00223   0.11827
  15        2S          0.00000   0.00000  -0.00212   0.08300   0.06474
     Beta Density Matrix:
                           1         2         3         4         5
   1 1   C  1S          1.02096
   2        2S         -0.03457   0.11533
   3        2PX         0.00000   0.00000   0.00000
   4        2PY         0.00000   0.00000   0.00000   0.00000
   5        2PZ         0.03997  -0.08287   0.00000   0.00000   0.05977
   6        3S         -0.06136   0.10415   0.00000   0.00000  -0.07529
   7        3PX         0.00000   0.00000   0.00000   0.00000   0.00000
   8        3PY         0.00000   0.00000   0.00000   0.00000   0.00000
   9        3PZ         0.01577  -0.03180   0.00000   0.00000   0.02295
  10        4S          0.00179   0.00001   0.00000   0.00000   0.00002
  11        4PX         0.00000   0.00000   0.00000   0.00000   0.00000
  12        4PY         0.00000   0.00000   0.00000   0.00000   0.00000
  13        4PZ         0.00070  -0.00069   0.00000   0.00000   0.00050
  14 2   H  1S         -0.04923   0.10014   0.00000   0.00000  -0.07224
  15        2S         -0.02548   0.05637   0.00000   0.00000  -0.04064
                           6         7         8         9        10
   6        3S          0.09496
   7        3PX         0.00000   0.00000
   8        3PY         0.00000   0.00000   0.00000
   9        3PZ        -0.02891   0.00000   0.00000   0.00881
  10        4S         -0.00005   0.00000   0.00000   0.00001   0.00000
  11        4PX         0.00000   0.00000   0.00000   0.00000   0.00000
  12        4PY         0.00000   0.00000   0.00000   0.00000   0.00000
  13        4PZ        -0.00063   0.00000   0.00000   0.00019   0.00000
  14 2   H  1S          0.09101   0.00000   0.00000  -0.02773  -0.00003
  15        2S          0.05117   0.00000   0.00000  -0.01560  -0.00001
                          11        12        13        14        15
  11        4PX         0.00000
  12        4PY         0.00000   0.00000
  13        4PZ         0.00000   0.00000   0.00000
  14 2   H  1S          0.00000   0.00000  -0.00061   0.08731
  15        2S          0.00000   0.00000  -0.00034   0.04911   0.02763
    Full Mulliken population analysis:
                           1         2         3         4         5
   1 1   C  1S          2.06257
   2        2S         -0.02554   0.33971
   3        2PX         0.00000   0.00000   0.40538
   4        2PY         0.00000   0.00000   0.00000   0.40538
   5        2PZ         0.00000   0.00000   0.00000   0.00000   0.33338
   6        3S         -0.03500   0.29472   0.00000   0.00000   0.00000
   7        3PX         0.00000   0.00000   0.16655   0.00000   0.00000
   8        3PY         0.00000   0.00000   0.00000   0.16655   0.00000
   9        3PZ         0.00000   0.00000   0.00000   0.00000   0.08628
  10        4S          0.00001   0.00324   0.00000   0.00000   0.00000
  11        4PX         0.00000   0.00000   0.00655   0.00000   0.00000
  12        4PY         0.00000   0.00000   0.00000   0.00655   0.00000
  13        4PZ         0.00000   0.00000   0.00000   0.00000   0.00087
  14 2   H  1S         -0.00236   0.03863   0.00000   0.00000   0.08297
  15        2S         -0.00214   0.02333   0.00000   0.00000   0.04526
                           6         7         8         9        10
   6        3S          0.40888
   7        3PX         0.00000   0.21079
   8        3PY         0.00000   0.00000   0.21079
   9        3PZ         0.00000   0.00000   0.00000   0.06971
  10        4S          0.00823   0.00000   0.00000   0.00000   0.00060
  11        4PX         0.00000   0.01687   0.00000   0.00000   0.00000
  12        4PY         0.00000   0.00000   0.01687   0.00000   0.00000
  13        4PZ         0.00000   0.00000   0.00000   0.00147   0.00000
  14 2   H  1S          0.03747   0.00000   0.00000   0.04922  -0.00112
  15        2S          0.00858   0.00000   0.00000   0.04383  -0.00302
                          11        12        13        14        15
  11        4PX         0.00390
  12        4PY         0.00000   0.00390
  13        4PZ         0.00000   0.00000   0.00009
  14 2   H  1S          0.00000   0.00000   0.00060   0.20558
  15        2S          0.00000   0.00000   0.00107   0.08697   0.09236
     Gross orbital populations:
                         Total     Alpha     Beta      Spin
   1 1   C  1S          1.99753   0.99926   0.99827   0.00099
   2        2S          0.67409   0.42776   0.24633   0.18142
   3        2PX         0.57848   0.57848   0.00000   0.57848
   4        2PY         0.57848   0.57848   0.00000   0.57848
   5        2PZ         0.54876   0.43849   0.11027   0.32823
   6        3S          0.72287   0.48447   0.23840   0.24606
   7        3PX         0.39421   0.39421   0.00000   0.39421
   8        3PY         0.39421   0.39421   0.00000   0.39421
   9        3PZ         0.25052   0.20515   0.04537   0.15978
  10        4S          0.00794   0.00785   0.00008   0.00777
  11        4PX         0.02731   0.02731   0.00000   0.02731
  12        4PY         0.02731   0.02731   0.00000   0.02731
  13        4PZ         0.00410   0.00362   0.00048   0.00315
  14 2   H  1S          0.49796   0.27755   0.22041   0.05715
  15        2S          0.29624   0.15585   0.14039   0.01545
          Condensed to atoms (all electrons):
               1          2
     1  C    5.883490   0.322310
     2  H    0.322310   0.471889
          Atomic-Atomic Spin Densities.
               1          2
     1  C    2.967476  -0.040078
     2  H   -0.040078   0.112680
 Mulliken charges and spin densities:
               1          2
     1  C   -0.205801   2.927398
     2  H    0.205801   0.072602
 Sum of Mulliken charges =  -0.00000   3.00000
 Mulliken charges and spin densities with hydrogens summed into heavy atoms:
               1          2
     1  C   -0.000000   3.000000

 Bonding Mulliken population analysis:
     Alpha  Bonding Density Matrix:
                           1         2         3         4         5
   1 1   C  1S          0.00000
   2        2S          0.00000   0.00000
   3        2PX         0.00000   0.00000   0.00000
   4        2PY         0.00000   0.00000   0.00000   0.00000
   5        2PZ         0.00000   0.00000   0.00000   0.00000   0.00000
   6        3S          0.00000   0.00000   0.00000   0.00000   0.00000
   7        3PX         0.00000   0.00000   0.00000   0.00000   0.00000
   8        3PY         0.00000   0.00000   0.00000   0.00000   0.00000
   9        3PZ         0.00000   0.00000   0.00000   0.00000   0.00000
  10        4S          0.00000   0.00000   0.00000   0.00000   0.00000
  11        4PX         0.00000   0.00000   0.00000   0.00000   0.00000
  12        4PY         0.00000   0.00000   0.00000   0.00000   0.00000
  13        4PZ         0.00000   0.00000   0.00000   0.00000   0.00000
  14 2   H  1S         -0.02394   0.04204   0.00000   0.00000  -0.15360
  15        2S          0.00221  -0.00724   0.00000   0.00000  -0.12971
                           6         7         8         9        10
   6        3S          0.00000
   7        3PX         0.00000   0.00000
   8        3PY         0.00000   0.00000   0.00000
   9        3PZ         0.00000   0.00000   0.00000   0.00000
  10        4S          0.00000   0.00000   0.00000   0.00000   0.00000
  11        4PX         0.00000   0.00000   0.00000   0.00000   0.00000
  12        4PY         0.00000   0.00000   0.00000   0.00000   0.00000
  13        4PZ         0.00000   0.00000   0.00000   0.00000   0.00000
  14 2   H  1S          0.00868   0.00000   0.00000  -0.06789  -0.00432
  15        2S         -0.03897   0.00000   0.00000  -0.05957  -0.00471
                          11        12        13        14        15
  11        4PX         0.00000
  12        4PY         0.00000   0.00000
  13        4PZ         0.00000   0.00000   0.00000
  14 2   H  1S          0.00000   0.00000  -0.00223   0.00000
  15        2S          0.00000   0.00000  -0.00212   0.00000   0.00000
     Beta  Bonding Density Matrix:
                           1         2         3         4         5
   1 1   C  1S          0.00000
   2        2S          0.00000   0.00000
   3        2PX         0.00000   0.00000   0.00000
   4        2PY         0.00000   0.00000   0.00000   0.00000
   5        2PZ         0.00000   0.00000   0.00000   0.00000   0.00000
   6        3S          0.00000   0.00000   0.00000   0.00000   0.00000
   7        3PX         0.00000   0.00000   0.00000   0.00000   0.00000
   8        3PY         0.00000   0.00000   0.00000   0.00000   0.00000
   9        3PZ         0.00000   0.00000   0.00000   0.00000   0.00000
  10        4S          0.00000   0.00000   0.00000   0.00000   0.00000
  11        4PX         0.00000   0.00000   0.00000   0.00000   0.00000
  12        4PY         0.00000   0.00000   0.00000   0.00000   0.00000
  13        4PZ         0.00000   0.00000   0.00000   0.00000   0.00000
  14 2   H  1S         -0.04923   0.10014   0.00000   0.00000  -0.07224
  15        2S         -0.02548   0.05637   0.00000   0.00000  -0.04064
                           6         7         8         9        10
   6        3S          0.00000
   7        3PX         0.00000   0.00000
   8        3PY         0.00000   0.00000   0.00000
   9        3PZ         0.00000   0.00000   0.00000   0.00000
  10        4S          0.00000   0.00000   0.00000   0.00000   0.00000
  11        4PX         0.00000   0.00000   0.00000   0.00000   0.00000
  12        4PY         0.00000   0.00000   0.00000   0.00000   0.00000
  13        4PZ         0.00000   0.00000   0.00000   0.00000   0.00000
  14 2   H  1S          0.09101   0.00000   0.00000  -0.02773  -0.00003
  15        2S          0.05117   0.00000   0.00000  -0.01560  -0.00001
                          11        12        13        14        15
  11        4PX         0.00000
  12        4PY         0.00000   0.00000
  13        4PZ         0.00000   0.00000   0.00000
  14 2   H  1S          0.00000   0.00000  -0.00061   0.00000
  15        2S          0.00000   0.00000  -0.00034   0.00000   0.00000
    Full Bonding Mulliken population analysis:
                           1         2         3         4         5
   1 1   C  1S          0.00000
   2        2S          0.00000   0.00000
   3        2PX         0.00000   0.00000   0.00000
   4        2PY         0.00000   0.00000   0.00000   0.00000
   5        2PZ         0.00000   0.00000   0.00000   0.00000   0.00000
   6        3S          0.00000   0.00000   0.00000   0.00000   0.00000
   7        3PX         0.00000   0.00000   0.00000   0.00000   0.00000
   8        3PY         0.00000   0.00000   0.00000   0.00000   0.00000
   9        3PZ         0.00000   0.00000   0.00000   0.00000   0.00000
  10        4S          0.00000   0.00000   0.00000   0.00000   0.00000
  11        4PX         0.00000   0.00000   0.00000   0.00000   0.00000
  12        4PY         0.00000   0.00000   0.00000   0.00000   0.00000
  13        4PZ         0.00000   0.00000   0.00000   0.00000   0.00000
  14 2   H  1S         -0.00236   0.03863   0.00000   0.00000   0.08297
  15        2S         -0.00214   0.02333   0.00000   0.00000   0.04526
                           6         7         8         9        10
   6        3S          0.00000
   7        3PX         0.00000   0.00000
   8        3PY         0.00000   0.00000   0.00000
   9        3PZ         0.00000   0.00000   0.00000   0.00000
  10        4S          0.00000   0.00000   0.00000   0.00000   0.00000
  11        4PX         0.00000   0.00000   0.00000   0.00000   0.00000
  12        4PY         0.00000   0.00000   0.00000   0.00000   0.00000
  13        4PZ         0.00000   0.00000   0.00000   0.00000   0.00000
  14 2   H  1S          0.03747   0.00000   0.00000   0.04922  -0.00112
  15        2S          0.00858   0.00000   0.00000   0.04383  -0.00302
                          11        12        13        14        15
  11        4PX         0.00000
  12        4PY         0.00000   0.00000
  13        4PZ         0.00000   0.00000   0.00000
  14 2   H  1S          0.00000   0.00000   0.00060   0.00000
  15        2S          0.00000   0.00000   0.00107   0.00000   0.00000
     Bonding Gross orbital populations:
                         Total     Alpha     Beta      Spin
   1 1   C  1S         -0.00450  -0.00057  -0.00393   0.00336
   2        2S          0.06196   0.00799   0.05397  -0.04599
   3        2PX         0.00000   0.00000   0.00000   0.00000
   4        2PY         0.00000   0.00000   0.00000   0.00000
   5        2PZ         0.12823   0.09089   0.03734   0.05356
   6        3S          0.04604  -0.02414   0.07018  -0.09431
   7        3PX         0.00000   0.00000   0.00000   0.00000
   8        3PY         0.00000   0.00000   0.00000   0.00000
   9        3PZ         0.09306   0.06968   0.02337   0.04631
  10        4S         -0.00415  -0.00413  -0.00001  -0.00412
  11        4PX         0.00000   0.00000   0.00000   0.00000
  12        4PY         0.00000   0.00000   0.00000   0.00000
  13        4PZ         0.00167   0.00139   0.00028   0.00112
  14 2   H  1S          0.20541   0.10464   0.10076   0.00388
  15        2S          0.11691   0.03647   0.08043  -0.04396
          Bonding Condensed to atoms (all electrons):
               1          2
     1  C    0.000000   0.322310
     2  H    0.322310   0.000000
          Bonding Atomic-Atomic Spin Densities.
               1          2
     1  C    0.000000  -0.040078
     2  H   -0.040078   0.000000
 Bonding Mulliken charges and spin densities:
               1          2
     1  C    5.677690  -0.040078
     2  H    0.677690  -0.040078
 Sum of Bonding Mulliken charges =   6.35538  -0.08016
 Bonding Mulliken charges and spin densities with hydrogens summed into heavy atoms:
               1          2
     1  C    6.355379  -0.080156
 Electronic spatial extent (au):  <R**2>=             18.7155
 Charge=             -0.0000 electrons
 Dipole moment (field-independent basis, Debye):
    X=              0.0000    Y=              0.0000    Z=             -0.6062  Tot=              0.6062
 Quadrupole moment (field-independent basis, Debye-Ang):
   XX=             -7.3876   YY=             -7.3876   ZZ=             -5.4785
   XY=              0.0000   XZ=              0.0000   YZ=              0.0000
 Traceless Quadrupole moment (field-independent basis, Debye-Ang):
   XX=             -0.6364   YY=             -0.6364   ZZ=              1.2727
   XY=              0.0000   XZ=              0.0000   YZ=              0.0000
 Octapole moment (field-independent basis, Debye-Ang**2):
  XXX=              0.0000  YYY=              0.0000  ZZZ=             -1.7806  XYY=              0.0000
  XXY=              0.0000  XXZ=             -0.3540  XZZ=              0.0000  YZZ=              0.0000
  YYZ=             -0.3540  XYZ=              0.0000
 Hexadecapole moment (field-independent basis, Debye-Ang**3):
 XXXX=             -9.3777 YYYY=             -9.3777 ZZZZ=             -9.8726 XXXY=              0.0000
 XXXZ=              0.0000 YYYX=              0.0000 YYYZ=              0.0000 ZZZX=              0.0000
 ZZZY=              0.0000 XXYY=             -3.1259 XXZZ=             -3.4643 YYZZ=             -3.4643
 XXYZ=              0.0000 YYXZ=              0.0000 ZZXY=              0.0000
 N-N= 2.904646486884D+00 E-N=-9.500461027560D+01  KE= 3.826404897743D+01
 Symmetry A1   KE= 3.586176311016D+01
 Symmetry A2   KE= 0.000000000000D+00
 Symmetry B1   KE= 1.201142933633D+00
 Symmetry B2   KE= 1.201142933633D+00
 Symmetry A1   SP= 1.000000000000D+00
 Symmetry A2   SP= 0.000000000000D+00
 Symmetry B1   SP= 1.000000000000D+00
 Symmetry B2   SP= 1.000000000000D+00
     Alpha  MBS Density Matrix:
                           1         2         3         4         5
   1 1   C  1S          1.05910
   2        2S         -0.23315   0.95191
   3        2PX         0.00000  -0.00000   1.00000
   4        2PY        -0.00000   0.00000   0.00000   1.00000
   5        2PZ        -0.05885   0.29656   0.00000  -0.00000   0.48675
   6 2   H  1S         -0.03076   0.02121   0.00000  -0.00000  -0.33206
                           6
   6 2   H  1S          0.29150
     Beta  MBS Density Matrix:
                           1         2         3         4         5
   1 1   C  1S          1.02692
   2        2S         -0.09632   0.37014
   3        2PX         0.00000  -0.00000   0.00000
   4        2PY        -0.00000   0.00000  -0.00000   0.00000
   5        2PZ         0.05402  -0.18335   0.00000  -0.00000   0.09087
   6 2   H  1S         -0.08802   0.26467  -0.00000   0.00000  -0.13123
                           6
   6 2   H  1S          0.18962
    Full MBS Mulliken population analysis:
                           1         2         3         4         5
   1 1   C  1S          2.08601
   2        2S         -0.08183   1.32204
   3        2PX         0.00000   0.00000   1.00000
   4        2PY         0.00000   0.00000   0.00000   1.00000
   5        2PZ         0.00000   0.00000   0.00000   0.00000   0.57761
   6 2   H  1S         -0.00734   0.13979   0.00000   0.00000   0.21599
                           6
   6 2   H  1S          0.48112
     MBS Gross orbital populations:
                         Total     Alpha     Beta      Spin
   1 1   C  1S          1.99684   0.99929   0.99755   0.00174
   2        2S          1.38000   0.90437   0.47563   0.42874
   3        2PX         1.00000   1.00000   0.00000   1.00000
   4        2PY         1.00000   1.00000   0.00000   1.00000
   5        2PZ         0.79360   0.64156   0.15205   0.48951
   6 2   H  1S          0.82955   0.45478   0.37477   0.08001
          MBS Condensed to atoms (all electrons):
               1          2
     1  C    5.822013   0.348432
     2  H    0.348432   0.481122
          MBS Atomic-Atomic Spin Densities.
               1          2
     1  C    2.941866  -0.021875
     2  H   -0.021875   0.101884
 MBS Mulliken charges and spin densities:
               1          2
     1  C   -0.170446   2.919991
     2  H    0.170446   0.080009
 Sum of MBS Mulliken charges =   0.00000   3.00000
 MBS Mulliken charges and spin densities with hydrogens summed into heavy atoms:
               1          2
     1  C    0.000000   3.000000
 MBS Atomic Valencies and Mayer Atomic Bond Orders:
               1          2
     1  C    0.890940   0.890940
     2  H    0.890940   0.890940
 MBS Mayer-style numbers of lone pairs (2.037 valence pairs, 1.146 lone pairs):
               1
     1  C    1.198159
     2  H   -0.052295
 BEBO parameters in MulMin, MxElBE=  0:
 ELP=  0.00000000000     EBEBO=  0.00000000000     Sum=  0.00000000000    
 ELP=  0.00000000000     EBEBO=  0.00000000000     EJK=  0.00000000000      0.00000000000     Sum=  0.00000000000    
 0 EA=  0.00000000000     EB=  0.00000000000     ETot=  0.00000000000    
 1 EA=  0.00000000000     EB=  0.00000000000     ETot=  0.00000000000    
 2 EA=  0.00000000000     EB=  0.00000000000     ETot=  0.00000000000    
 3 EJ=  0.00000000000     EK=  0.00000000000     ETot=  0.00000000000    
 4 EJ=  0.00000000000     EK=  0.00000000000     ETot=  0.00000000000    
 5 EA=  0.00000000000     EB=  0.00000000000     ETot=  0.00000000000    
 Orbital energies and kinetic energies (alpha):
                                 1                 2
   1         O               -11.256456         16.043944
   2         O                -0.754821          1.199244
   3         O                -0.173502          1.375388
   4         O                -0.070106          1.201143
   5         O                -0.070106          1.201143
   6         V                 0.102881          0.237579
   7         V                 0.125175          0.195597
   8         V                 0.136165          0.213799
   9         V                 0.136165          0.213799
  10         V                 0.332522          0.806880
  11         V                 0.863883          1.946899
  12         V                 0.877961          2.131349
  13         V                 0.877961          2.131349
  14         V                 1.027461          2.035809
  15         V                 1.243100          2.735866
 Total kinetic energy from orbitals= 4.204172288078D+01
                          Isotropic Fermi Contact Couplings
        Atom                 a.u.       MegaHertz       Gauss      10(-4) cm-1
     1  C(13)              1.09411     409.99442     146.29620     136.75942
     2  H(1)               0.05368      79.97979      28.53878      26.67839
 --------------------------------------------------------
       Center         ----  Spin Dipole Couplings  ----
                      3XX-RR        3YY-RR        3ZZ-RR
 --------------------------------------------------------
     1   Atom        0.272328      0.272328     -0.544656
     2   Atom       -0.104104     -0.104104      0.208208
 --------------------------------------------------------
                        XY            XZ            YZ
 --------------------------------------------------------
     1   Atom        0.000000      0.000000      0.000000
     2   Atom        0.000000      0.000000      0.000000
 --------------------------------------------------------


 ---------------------------------------------------------------------------------
              Anisotropic Spin Dipole Couplings in Principal Axis System
 ---------------------------------------------------------------------------------

       Atom             a.u.   MegaHertz   Gauss  10(-4) cm-1        Axes

              Baa    -0.5447   -73.088   -26.079   -24.379  0.0000  0.0000  1.0000
     1 C(13)  Bbb     0.2723    36.544    13.040    12.190 -0.0000  1.0000  0.0000
              Bcc     0.2723    36.544    13.040    12.190  1.0000  0.0000  0.0000
 
              Baa    -0.1041   -55.545   -19.820   -18.528  1.0000  0.0000  0.0000
     2 H(1)   Bbb    -0.1041   -55.545   -19.820   -18.528 -0.0000  1.0000  0.0000
              Bcc     0.2082   111.090    39.640    37.056  0.0000  0.0000  1.0000
 

 ---------------------------------------------------------------------------------


 Test job not archived.
 1\1\GINC-SMP-N199\SP\ROHF\6-31+G\C1H1(4)\BLZ11\12-Jul-2024\0\\# SP ROH
 F/6-31+G Pop=(Full) scf=tight IOp(6/27=122)\\CH_4\\0,4\C,0,0.,0.,-0.00
 0549\H,0,0.,0.,1.092549\\Version=ES64L-G16RevC.01\State=4-SG\HF=-38.27
 17896\RMSD=6.217e-09\Dipole=0.,0.,0.2384863\Quadrupole=-0.4731241,-0.4
 731241,0.9462482,0.,0.,0.\PG=C*V [C*(H1C1)]\\@


 IT IS DOUBTED WHETHER A MAN EVER BRINGS HIS FACULTIES TO BEAR WITH THEIR FULL FORCE
 ON A SUBJECT UNTIL HE WRITES UPON IT.

                          -- CICERO
 Job cpu time:       0 days  0 hours  0 minutes  0.5 seconds.
 Elapsed time:       0 days  0 hours  0 minutes  0.5 seconds.
 File lengths (MBytes):  RWF=      6 Int=      0 D2E=      0 Chk=      1 Scr=      1
 Normal termination of Gaussian 16 at Fri Jul 12 14:59:23 2024.
/var/spool/slurmd/job16169847/slurm_script: line 22: crc-job-stats.py: command not found
