 Entering Gaussian System, Link 0=g16
 Initial command:
 /ihome/crc/install/gaussian/c01/avx2/tar/g16/l1.exe "/scratch/slurm-16209040/Gau-49356.inp" -scrdir="/scratch/slurm-16209040/"
 Entering Link 1 = /ihome/crc/install/gaussian/c01/avx2/tar/g16/l1.exe PID=     49357.
  
 Copyright (c) 1988-2019, Gaussian, Inc.  All Rights Reserved.
  
 This is part of the Gaussian(R) 16 program.  It is based on
 the Gaussian(R) 09 system (copyright 2009, Gaussian, Inc.),
 the Gaussian(R) 03 system (copyright 2003, Gaussian, Inc.),
 the Gaussian(R) 98 system (copyright 1998, Gaussian, Inc.),
 the Gaussian(R) 94 system (copyright 1995, Gaussian, Inc.),
 the Gaussian 92(TM) system (copyright 1992, Gaussian, Inc.),
 the Gaussian 90(TM) system (copyright 1990, Gaussian, Inc.),
 the Gaussian 88(TM) system (copyright 1988, Gaussian, Inc.),
 the Gaussian 86(TM) system (copyright 1986, Carnegie Mellon
 University), and the Gaussian 82(TM) system (copyright 1983,
 Carnegie Mellon University). Gaussian is a federally registered
 trademark of Gaussian, Inc.
  
 This software contains proprietary and confidential information,
 including trade secrets, belonging to Gaussian, Inc.
  
 This software is provided under written license and may be
 used, copied, transmitted, or stored only in accord with that
 written license.
  
 The following legend is applicable only to US Government
 contracts under FAR:
  
                    RESTRICTED RIGHTS LEGEND
  
 Use, reproduction and disclosure by the US Government is
 subject to restrictions as set forth in subparagraphs (a)
 and (c) of the Commercial Computer Software - Restricted
 Rights clause in FAR 52.227-19.
  
 Gaussian, Inc.
 340 Quinnipiac St., Bldg. 40, Wallingford CT 06492
  
  
 ---------------------------------------------------------------
 Warning -- This program may not be used in any manner that
 competes with the business of Gaussian, Inc. or will provide
 assistance to any competitor of Gaussian, Inc.  The licensee
 of this program is prohibited from giving any competitor of
 Gaussian, Inc. access to this program.  By using this program,
 the user acknowledges that Gaussian, Inc. is engaged in the
 business of creating and licensing software in the field of
 computational chemistry and represents and warrants to the
 licensee that it is not a competitor of Gaussian, Inc. and that
 it will not use this program in any manner prohibited above.
 ---------------------------------------------------------------
  

 Cite this work as:
 Gaussian 16, Revision C.01,
 M. J. Frisch, G. W. Trucks, H. B. Schlegel, G. E. Scuseria, 
 M. A. Robb, J. R. Cheeseman, G. Scalmani, V. Barone, 
 G. A. Petersson, H. Nakatsuji, X. Li, M. Caricato, A. V. Marenich, 
 J. Bloino, B. G. Janesko, R. Gomperts, B. Mennucci, H. P. Hratchian, 
 J. V. Ortiz, A. F. Izmaylov, J. L. Sonnenberg, D. Williams-Young, 
 F. Ding, F. Lipparini, F. Egidi, J. Goings, B. Peng, A. Petrone, 
 T. Henderson, D. Ranasinghe, V. G. Zakrzewski, J. Gao, N. Rega, 
 G. Zheng, W. Liang, M. Hada, M. Ehara, K. Toyota, R. Fukuda, 
 J. Hasegawa, M. Ishida, T. Nakajima, Y. Honda, O. Kitao, H. Nakai, 
 T. Vreven, K. Throssell, J. A. Montgomery, Jr., J. E. Peralta, 
 F. Ogliaro, M. J. Bearpark, J. J. Heyd, E. N. Brothers, K. N. Kudin, 
 V. N. Staroverov, T. A. Keith, R. Kobayashi, J. Normand, 
 K. Raghavachari, A. P. Rendell, J. C. Burant, S. S. Iyengar, 
 J. Tomasi, M. Cossi, J. M. Millam, M. Klene, C. Adamo, R. Cammi, 
 J. W. Ochterski, R. L. Martin, K. Morokuma, O. Farkas, 
 J. B. Foresman, and D. J. Fox, Gaussian, Inc., Wallingford CT, 2019.
 
 ******************************************
 Gaussian 16:  ES64L-G16RevC.01  3-Jul-2019
                15-Jul-2024 
 ******************************************
 ----------------------------------------------------
 #P SP ROHF/6-31+G Pop=(Full) scf=tight IOp(6/27=122)
 ----------------------------------------------------
 1/38=1,172=1/1;
 2/12=2,17=6,18=5,40=1/2;
 3/5=1,6=6,7=10,11=2,25=1,30=1,116=101/1,2,3;
 4//1;
 5/5=2,32=2,38=5/2;
 6/7=3,27=122,28=1/1;
 99/5=1,9=1/99;
 Leave Link    1 at Mon Jul 15 12:25:18 2024, MaxMem=           0 cpu:               0.0 elap:               0.0
 (Enter /ihome/crc/install/gaussian/c01/avx2/tar/g16/l101.exe)
 -----
 CHCl3
 -----
 Symbolic Z-matrix:
 Charge =  0 Multiplicity = 1
 C                     0.        0.        0.45474 
 Cl                    0.        1.69429  -0.08359 
 Cl                    1.4673   -0.84715  -0.08359 
 Cl                   -1.4673   -0.84715  -0.08359 
 H                     0.        0.        1.53452 
 
 ITRead=  0  0  0  0  0
 MicOpt= -1 -1 -1 -1 -1
 NAtoms=      5 NQM=        5 NQMF=       0 NMMI=      0 NMMIF=      0
                NMic=       0 NMicF=      0.
                    Isotopes and Nuclear Properties:
 (Nuclear quadrupole moments (NQMom) in fm**2, nuclear magnetic moments (NMagM)
  in nuclear magnetons)

  Atom         1           2           3           4           5
 IAtWgt=          12          35          35          35           1
 AtmWgt=  12.0000000  34.9688527  34.9688527  34.9688527   1.0078250
 NucSpn=           0           3           3           3           1
 AtZEff=  -0.0000000  -0.0000000  -0.0000000  -0.0000000  -0.0000000
 NQMom=    0.0000000  -8.1650000  -8.1650000  -8.1650000   0.0000000
 NMagM=    0.0000000   0.8218740   0.8218740   0.8218740   2.7928460
 AtZNuc=   6.0000000  17.0000000  17.0000000  17.0000000   1.0000000
 Leave Link  101 at Mon Jul 15 12:25:18 2024, MaxMem=   104857600 cpu:               0.1 elap:               0.1
 (Enter /ihome/crc/install/gaussian/c01/avx2/tar/g16/l202.exe)
                          Input orientation:                          
 ---------------------------------------------------------------------
 Center     Atomic      Atomic             Coordinates (Angstroms)
 Number     Number       Type             X           Y           Z
 ---------------------------------------------------------------------
      1          6           0        0.000000    0.000000    0.454744
      2         17           0        0.000000    1.694293   -0.083588
      3         17           0        1.467301   -0.847147   -0.083588
      4         17           0       -1.467301   -0.847147   -0.083588
      5          1           0        0.000000    0.000000    1.534524
 ---------------------------------------------------------------------
                    Distance matrix (angstroms):
                    1          2          3          4          5
     1  C    0.000000
     2  Cl   1.777760   0.000000
     3  Cl   1.777760   2.934602   0.000000
     4  Cl   1.777760   2.934602   2.934602   0.000000
     5  H    1.079780   2.342843   2.342844   2.342844   0.000000
 Stoichiometry    CHCl3
 Framework group  C3V[C3(CH),3SGV(Cl)]
 Deg. of freedom     3
 Full point group                 C3V     NOp   6
 Largest Abelian subgroup         CS      NOp   2
 Largest concise Abelian subgroup CS      NOp   2
                         Standard orientation:                         
 ---------------------------------------------------------------------
 Center     Atomic      Atomic             Coordinates (Angstroms)
 Number     Number       Type             X           Y           Z
 ---------------------------------------------------------------------
      1          6           0       -0.000000    0.000000    0.454744
      2         17           0       -0.000000    1.694293   -0.083588
      3         17           0        1.467301   -0.847147   -0.083588
      4         17           0       -1.467301   -0.847147   -0.083588
      5          1           0       -0.000000    0.000000    1.534524
 ---------------------------------------------------------------------
 Rotational constants (GHZ):           3.2368042           3.2368042           1.6781755
 Leave Link  202 at Mon Jul 15 12:25:18 2024, MaxMem=   104857600 cpu:               0.0 elap:               0.0
 (Enter /ihome/crc/install/gaussian/c01/avx2/tar/g16/l301.exe)
 Standard basis: 6-31+G (6D, 7F)
 Ernie: Thresh=  0.10000D-02 Tol=  0.10000D-05 Strict=F.
 There are    42 symmetry adapted cartesian basis functions of A'  symmetry.
 There are    24 symmetry adapted cartesian basis functions of A"  symmetry.
 There are    42 symmetry adapted basis functions of A'  symmetry.
 There are    24 symmetry adapted basis functions of A"  symmetry.
    66 basis functions,   180 primitive gaussians,    66 cartesian basis functions
    29 alpha electrons       29 beta electrons
       nuclear repulsion energy       261.8856799073 Hartrees.
 IExCor=    0 DFT=F Ex=HF Corr=None ExCW=0 ScaHFX=  1.000000
 ScaDFX=  1.000000  1.000000  1.000000  1.000000 ScalE2=  1.000000  1.000000
 IRadAn=      5 IRanWt=     -1 IRanGd=            0 ICorTp=0 IEmpDi=  4
 NAtoms=    5 NActive=    5 NUniq=    3 SFac= 2.78D+00 NAtFMM=   60 NAOKFM=F Big=F
 Integral buffers will be    131072 words long.
 Raffenetti 2 integral format.
 Two-electron integral symmetry is turned on.
 Leave Link  301 at Mon Jul 15 12:25:18 2024, MaxMem=   104857600 cpu:               0.0 elap:               0.0
 (Enter /ihome/crc/install/gaussian/c01/avx2/tar/g16/l302.exe)
 NPDir=0 NMtPBC=     1 NCelOv=     1 NCel=       1 NClECP=     1 NCelD=      1
         NCelK=      1 NCelE2=     1 NClLst=     1 CellRange=     0.0.
 One-electron integrals computed using PRISM.
 One-electron integral symmetry used in STVInt
 NBasis=    66 RedAO= T EigKep=  1.97D-04  NBF=    42    24
 NBsUse=    66 1.00D-06 EigRej= -1.00D+00 NBFU=    42    24
 Leave Link  302 at Mon Jul 15 12:25:18 2024, MaxMem=   104857600 cpu:               0.0 elap:               0.0
 (Enter /ihome/crc/install/gaussian/c01/avx2/tar/g16/l303.exe)
 DipDrv:  MaxL=1.
 Leave Link  303 at Mon Jul 15 12:25:18 2024, MaxMem=   104857600 cpu:               0.0 elap:               0.0
 (Enter /ihome/crc/install/gaussian/c01/avx2/tar/g16/l401.exe)
 ExpMin= 4.38D-02 ExpMax= 2.52D+04 ExpMxC= 3.78D+03 IAcc=3 IRadAn=         5 AccDes= 0.00D+00
 Harris functional with IExCor=  205 and IRadAn=       5 diagonalized for initial guess.
 HarFok:  IExCor=  205 AccDes= 0.00D+00 IRadAn=         5 IDoV= 1 UseB2=F ITyADJ=14
 ICtDFT=  3500011 ScaDFX=  1.000000  1.000000  1.000000  1.000000
 FoFCou: FMM=F IPFlag=           0 FMFlag=      100000 FMFlg1=           0
         NFxFlg=           0 DoJE=T BraDBF=F KetDBF=T FulRan=T
         wScrn=  0.000000 ICntrl=       500 IOpCl=  0 I1Cent=   200000004 NGrid=           0
         NMat0=    1 NMatS0=      1 NMatT0=    0 NMatD0=    1 NMtDS0=    0 NMtDT0=    0
 Petite list used in FoFCou.
 Harris En= -1415.48843920638    
 JPrj=0 DoOrth=F DoCkMO=F.
 Initial guess orbital symmetries:
       Occupied  (E) (E) (A1) (A1) (E) (E) (A1) (A1) (E) (E) (E)
                 (E) (A2) (A1) (E) (E) (A1) (E) (E) (A1) (A1) (E)
                 (E) (E) (E) (A1) (E) (E) (A2)
       Virtual   (A1) (E) (E) (A1) (A1) (E) (E) (E) (E) (A1) (E)
                 (E) (A1) (A2) (E) (E) (A1) (E) (E) (A1) (A1) (A1)
                 (E) (E) (E) (E) (A1) (E) (E) (A2) (A1) (E) (E)
                 (E) (E) (A1) (A1)
 The electronic state of the initial guess is 1-A1.
 Leave Link  401 at Mon Jul 15 12:25:18 2024, MaxMem=   104857600 cpu:               0.1 elap:               0.1
 (Enter /ihome/crc/install/gaussian/c01/avx2/tar/g16/l502.exe)
 Keep R1 and R2 ints in memory in symmetry-blocked form, NReq=3704183.
 FoFCou: FMM=F IPFlag=           0 FMFlag=           0 FMFlg1=           0
         NFxFlg=           0 DoJE=F BraDBF=F KetDBF=F FulRan=T
         wScrn=  0.000000 ICntrl=       600 IOpCl=  0 I1Cent=           0 NGrid=           0
         NMat0=    1 NMatS0=   2211 NMatT0=    0 NMatD0=    1 NMtDS0=    0 NMtDT0=    0
 Petite list used in FoFCou.
 Restricted open shell SCF:
 Using DIIS extrapolation, IDIIS=  1040.
 NGot=   104857600 LenX=   102376772 LenY=   102371975
 Requested convergence on RMS density matrix=1.00D-08 within 128 cycles.
 Requested convergence on MAX density matrix=1.00D-06.
 Requested convergence on             energy=1.00D-06.
 No special actions if energy rises.

 Cycle   1  Pass 1  IDiag  1:
 E= -1416.74190241058    
 DIIS: error= 3.12D-02 at cycle   1 NSaved=   1.
 NSaved= 1 IEnMin= 1 EnMin= -1416.74190241058     IErMin= 1 ErrMin= 3.12D-02
 ErrMax= 3.12D-02  0.00D+00 EMaxC= 1.00D-01 BMatC= 1.17D-01 BMatP= 1.17D-01
 IDIUse=3 WtCom= 6.88D-01 WtEn= 3.12D-01
 Coeff-Com:  0.100D+01
 Coeff-En:   0.100D+01
 Coeff:      0.100D+01
 Gap=     0.540 Goal=   None    Shift=    0.000
 GapD=    0.540 DampG=2.000 DampE=0.500 DampFc=1.0000 IDamp=-1.
 RMSDP=8.15D-03 MaxDP=1.04D-01              OVMax= 4.20D-02

 Cycle   2  Pass 1  IDiag  1:
 E= -1416.77664864413     Delta-E=       -0.034746233549 Rises=F Damp=F
 DIIS: error= 4.48D-03 at cycle   2 NSaved=   2.
 NSaved= 2 IEnMin= 2 EnMin= -1416.77664864413     IErMin= 2 ErrMin= 4.48D-03
 ErrMax= 4.48D-03  0.00D+00 EMaxC= 1.00D-01 BMatC= 1.82D-03 BMatP= 1.17D-01
 IDIUse=3 WtCom= 9.55D-01 WtEn= 4.48D-02
 Coeff-Com:  0.309D-02 0.997D+00
 Coeff-En:   0.000D+00 0.100D+01
 Coeff:      0.296D-02 0.997D+00
 Gap=     0.548 Goal=   None    Shift=    0.000
 RMSDP=1.74D-03 MaxDP=1.56D-02 DE=-3.47D-02 OVMax= 1.22D-02

 Cycle   3  Pass 1  IDiag  1:
 E= -1416.77852217496     Delta-E=       -0.001873530826 Rises=F Damp=F
 DIIS: error= 3.15D-03 at cycle   3 NSaved=   3.
 NSaved= 3 IEnMin= 3 EnMin= -1416.77852217496     IErMin= 3 ErrMin= 3.15D-03
 ErrMax= 3.15D-03  0.00D+00 EMaxC= 1.00D-01 BMatC= 4.73D-04 BMatP= 1.82D-03
 IDIUse=3 WtCom= 9.69D-01 WtEn= 3.15D-02
 Coeff-Com: -0.120D-01 0.316D+00 0.696D+00
 Coeff-En:   0.000D+00 0.000D+00 0.100D+01
 Coeff:     -0.116D-01 0.306D+00 0.706D+00
 Gap=     0.541 Goal=   None    Shift=    0.000
 RMSDP=5.62D-04 MaxDP=6.17D-03 DE=-1.87D-03 OVMax= 5.33D-03

 Cycle   4  Pass 1  IDiag  1:
 E= -1416.77911388688     Delta-E=       -0.000591711922 Rises=F Damp=F
 DIIS: error= 4.89D-04 at cycle   4 NSaved=   4.
 NSaved= 4 IEnMin= 4 EnMin= -1416.77911388688     IErMin= 4 ErrMin= 4.89D-04
 ErrMax= 4.89D-04  0.00D+00 EMaxC= 1.00D-01 BMatC= 1.76D-05 BMatP= 4.73D-04
 IDIUse=3 WtCom= 9.95D-01 WtEn= 4.89D-03
 Coeff-Com:  0.281D-03-0.102D+00-0.293D-01 0.113D+01
 Coeff-En:   0.000D+00 0.000D+00 0.000D+00 0.100D+01
 Coeff:      0.280D-03-0.102D+00-0.292D-01 0.113D+01
 Gap=     0.542 Goal=   None    Shift=    0.000
 RMSDP=2.69D-04 MaxDP=2.65D-03 DE=-5.92D-04 OVMax= 1.93D-03

 Cycle   5  Pass 1  IDiag  1:
 E= -1416.77915726806     Delta-E=       -0.000043381177 Rises=F Damp=F
 DIIS: error= 1.01D-04 at cycle   5 NSaved=   5.
 NSaved= 5 IEnMin= 5 EnMin= -1416.77915726806     IErMin= 5 ErrMin= 1.01D-04
 ErrMax= 1.01D-04  0.00D+00 EMaxC= 1.00D-01 BMatC= 6.20D-07 BMatP= 1.76D-05
 IDIUse=3 WtCom= 9.99D-01 WtEn= 1.01D-03
 Coeff-Com:  0.118D-02-0.149D-01-0.345D-01-0.807D-01 0.113D+01
 Coeff-En:   0.000D+00 0.000D+00 0.000D+00 0.000D+00 0.100D+01
 Coeff:      0.118D-02-0.149D-01-0.345D-01-0.806D-01 0.113D+01
 Gap=     0.541 Goal=   None    Shift=    0.000
 RMSDP=6.51D-05 MaxDP=6.13D-04 DE=-4.34D-05 OVMax= 5.76D-04

 Cycle   6  Pass 1  IDiag  1:
 E= -1416.77915938715     Delta-E=       -0.000002119090 Rises=F Damp=F
 DIIS: error= 1.82D-05 at cycle   6 NSaved=   6.
 NSaved= 6 IEnMin= 6 EnMin= -1416.77915938715     IErMin= 6 ErrMin= 1.82D-05
 ErrMax= 1.82D-05  0.00D+00 EMaxC= 1.00D-01 BMatC= 2.43D-08 BMatP= 6.20D-07
 IDIUse=1 WtCom= 1.00D+00 WtEn= 0.00D+00
 Coeff-Com: -0.289D-03 0.868D-02 0.108D-01-0.478D-01-0.171D+00 0.120D+01
 Coeff:     -0.289D-03 0.868D-02 0.108D-01-0.478D-01-0.171D+00 0.120D+01
 Gap=     0.541 Goal=   None    Shift=    0.000
 RMSDP=1.36D-05 MaxDP=1.06D-04 DE=-2.12D-06 OVMax= 1.10D-04

 Cycle   7  Pass 1  IDiag  1:
 E= -1416.77915945436     Delta-E=       -0.000000067217 Rises=F Damp=F
 DIIS: error= 3.94D-06 at cycle   7 NSaved=   7.
 NSaved= 7 IEnMin= 7 EnMin= -1416.77915945436     IErMin= 7 ErrMin= 3.94D-06
 ErrMax= 3.94D-06  0.00D+00 EMaxC= 1.00D-01 BMatC= 5.39D-10 BMatP= 2.43D-08
 IDIUse=1 WtCom= 1.00D+00 WtEn= 0.00D+00
 Coeff-Com:  0.272D-04-0.115D-02-0.923D-03 0.974D-02 0.444D-02-0.240D+00
 Coeff-Com:  0.123D+01
 Coeff:      0.272D-04-0.115D-02-0.923D-03 0.974D-02 0.444D-02-0.240D+00
 Coeff:      0.123D+01
 Gap=     0.541 Goal=   None    Shift=    0.000
 RMSDP=2.31D-06 MaxDP=3.04D-05 DE=-6.72D-08 OVMax= 2.32D-05

 Cycle   8  Pass 1  IDiag  1:
 E= -1416.77915945616     Delta-E=       -0.000000001792 Rises=F Damp=F
 DIIS: error= 7.81D-07 at cycle   8 NSaved=   8.
 NSaved= 8 IEnMin= 8 EnMin= -1416.77915945616     IErMin= 8 ErrMin= 7.81D-07
 ErrMax= 7.81D-07  0.00D+00 EMaxC= 1.00D-01 BMatC= 2.13D-11 BMatP= 5.39D-10
 IDIUse=1 WtCom= 1.00D+00 WtEn= 0.00D+00
 Coeff-Com: -0.514D-05 0.262D-03 0.199D-03-0.275D-02 0.132D-02 0.701D-01
 Coeff-Com: -0.487D+00 0.142D+01
 Coeff:     -0.514D-05 0.262D-03 0.199D-03-0.275D-02 0.132D-02 0.701D-01
 Coeff:     -0.487D+00 0.142D+01
 Gap=     0.541 Goal=   None    Shift=    0.000
 RMSDP=3.89D-07 MaxDP=4.31D-06 DE=-1.79D-09 OVMax= 5.38D-06

 Cycle   9  Pass 1  IDiag  1:
 E= -1416.77915945624     Delta-E=       -0.000000000086 Rises=F Damp=F
 DIIS: error= 1.24D-07 at cycle   9 NSaved=   9.
 NSaved= 9 IEnMin= 9 EnMin= -1416.77915945624     IErMin= 9 ErrMin= 1.24D-07
 ErrMax= 1.24D-07  0.00D+00 EMaxC= 1.00D-01 BMatC= 6.99D-13 BMatP= 2.13D-11
 IDIUse=1 WtCom= 1.00D+00 WtEn= 0.00D+00
 Coeff-Com:  0.871D-06-0.556D-04-0.441D-04 0.691D-03-0.721D-03-0.173D-01
 Coeff-Com:  0.134D+00-0.506D+00 0.139D+01
 Coeff:      0.871D-06-0.556D-04-0.441D-04 0.691D-03-0.721D-03-0.173D-01
 Coeff:      0.134D+00-0.506D+00 0.139D+01
 Gap=     0.541 Goal=   None    Shift=    0.000
 RMSDP=9.60D-08 MaxDP=1.19D-06 DE=-8.62D-11 OVMax= 1.03D-06

 Cycle  10  Pass 1  IDiag  1:
 E= -1416.77915945625     Delta-E=       -0.000000000007 Rises=F Damp=F
 DIIS: error= 1.99D-08 at cycle  10 NSaved=  10.
 NSaved=10 IEnMin=10 EnMin= -1416.77915945625     IErMin=10 ErrMin= 1.99D-08
 ErrMax= 1.99D-08  0.00D+00 EMaxC= 1.00D-01 BMatC= 3.13D-14 BMatP= 6.99D-13
 IDIUse=1 WtCom= 1.00D+00 WtEn= 0.00D+00
 Coeff-Com: -0.173D-06 0.141D-04 0.112D-04-0.193D-03 0.251D-03 0.480D-02
 Coeff-Com: -0.384D-01 0.161D+00-0.596D+00 0.147D+01
 Coeff:     -0.173D-06 0.141D-04 0.112D-04-0.193D-03 0.251D-03 0.480D-02
 Coeff:     -0.384D-01 0.161D+00-0.596D+00 0.147D+01
 Gap=     0.541 Goal=   None    Shift=    0.000
 RMSDP=2.25D-08 MaxDP=3.18D-07 DE=-6.59D-12 OVMax= 2.19D-07

 Cycle  11  Pass 1  IDiag  1:
 E= -1416.77915945625     Delta-E=        0.000000000000 Rises=F Damp=F
 DIIS: error= 5.55D-09 at cycle  11 NSaved=  11.
 NSaved=11 IEnMin=10 EnMin= -1416.77915945625     IErMin=11 ErrMin= 5.55D-09
 ErrMax= 5.55D-09  0.00D+00 EMaxC= 1.00D-01 BMatC= 9.86D-16 BMatP= 3.13D-14
 IDIUse=1 WtCom= 1.00D+00 WtEn= 0.00D+00
 Coeff-Com:  0.320D-07-0.316D-05-0.230D-05 0.456D-04-0.631D-04-0.120D-02
 Coeff-Com:  0.983D-02-0.439D-01 0.181D+00-0.571D+00 0.142D+01
 Coeff:      0.320D-07-0.316D-05-0.230D-05 0.456D-04-0.631D-04-0.120D-02
 Coeff:      0.983D-02-0.439D-01 0.181D+00-0.571D+00 0.142D+01
 Gap=     0.541 Goal=   None    Shift=    0.000
 RMSDP=2.60D-09 MaxDP=1.93D-08 DE= 4.55D-13 OVMax= 4.27D-08

 SCF Done:  E(ROHF) =  -1416.77915946     A.U. after   11 cycles
            NFock= 11  Conv=0.26D-08     -V/T= 1.9996
 <Sx>= 0.0000 <Sy>= 0.0000 <Sz>= 0.0000 <S**2>=-0.0000 S=-0.0000
 <L.S>=  0.00000000000    
 KE= 1.417349635804D+03 PE=-3.895167228378D+03 EE= 7.991527532108D+02
 Annihilation of the first spin contaminant:
 S**2 before annihilation    -0.0000,   after     0.0000
 Leave Link  502 at Mon Jul 15 12:25:18 2024, MaxMem=   104857600 cpu:               0.2 elap:               0.2
 (Enter /ihome/crc/install/gaussian/c01/avx2/tar/g16/l601.exe)
 Copying SCF densities to generalized density rwf, IOpCl= 0 IROHF=1.

 **********************************************************************

            Population analysis using the SCF Density.

 **********************************************************************

 Orbital symmetries:
       Occupied  (E) (E) (A1) (A1) (E) (E) (A1) (A1) (E) (E) (A2)
                 (E) (E) (E) (E) (A1) (A1) (E) (E) (A1) (A1) (E)
                 (E) (E) (E) (E) (E) (A1) (A2)
       Virtual   (A1) (A1) (E) (E) (A1) (E) (E) (E) (E) (A1) (E)
                 (E) (A2) (A1) (E) (E) (A1) (E) (E) (A1) (A1) (A1)
                 (E) (E) (E) (E) (A1) (E) (E) (A1) (A2) (E) (E)
                 (E) (E) (A1) (A1)
 The electronic state is 1-A1.
 Alpha  occ. eigenvalues -- -104.86215-104.86215-104.86213 -11.45125 -10.60227
 Alpha  occ. eigenvalues --  -10.60227 -10.60224  -8.07099  -8.07098  -8.07098
 Alpha  occ. eigenvalues --   -8.06624  -8.06624  -8.06624  -8.06618  -8.06618
 Alpha  occ. eigenvalues --   -8.06617  -1.26911  -1.13217  -1.13217  -0.89169
 Alpha  occ. eigenvalues --   -0.69678  -0.63131  -0.63131  -0.51053  -0.51053
 Alpha  occ. eigenvalues --   -0.47741  -0.47741  -0.47565  -0.46531
 Alpha virt. eigenvalues --    0.07606   0.07776   0.09277   0.09277   0.12657
 Alpha virt. eigenvalues --    0.14088   0.14088   0.14910   0.14910   0.16396
 Alpha virt. eigenvalues --    0.18190   0.18190   0.19327   0.20404   0.21365
 Alpha virt. eigenvalues --    0.21365   0.23566   0.25143   0.25143   0.36426
 Alpha virt. eigenvalues --    0.72047   0.75108   0.75109   0.75109   0.78575
 Alpha virt. eigenvalues --    0.78575   0.79566   0.81300   0.81300   0.87683
 Alpha virt. eigenvalues --    0.87822   0.90829   0.90829   1.00323   1.00323
 Alpha virt. eigenvalues --    1.27989   1.45146
     Molecular Orbital Coefficients:
                           1         2         3         4         5
                        (E)--O    (E)--O    (A1)--O   (A1)--O   (E)--O
     Eigenvalues --  -104.86215-104.86215-104.86213 -11.45125 -10.60227
   1 1   C  1S          0.00000  -0.00000  -0.00002   0.99645  -0.00000
   2        2S          0.00000   0.00000   0.00003   0.02574  -0.00000
   3        2PX         0.00003   0.00000   0.00000   0.00000   0.00000
   4        2PY         0.00000   0.00003  -0.00000  -0.00000  -0.00003
   5        2PZ         0.00000  -0.00000  -0.00002  -0.00090  -0.00000
   6        3S          0.00000  -0.00000  -0.00080  -0.01853   0.00000
   7        3PX        -0.00062   0.00000   0.00000   0.00000   0.00000
   8        3PY         0.00000  -0.00062   0.00000   0.00000   0.00162
   9        3PZ         0.00000   0.00000   0.00020   0.00088  -0.00000
  10        4S          0.00000   0.00000   0.00440   0.01332  -0.00000
  11        4PX         0.00282   0.00000   0.00000   0.00000   0.00000
  12        4PY         0.00000   0.00282  -0.00000  -0.00000  -0.00693
  13        4PZ         0.00000   0.00000   0.00008  -0.00372  -0.00000
  14 2   Cl 1S          0.00000   0.81364   0.57534  -0.00004  -0.23412
  15        2S          0.00000   0.01024   0.00726   0.00010   0.84199
  16        2PX        -0.00001   0.00000   0.00000   0.00000   0.00000
  17        2PY         0.00000  -0.00007  -0.00005   0.00003  -0.00783
  18        2PZ         0.00000   0.00002   0.00002  -0.00001   0.00265
  19        3S          0.00000  -0.00411  -0.00261  -0.00025   0.02090
  20        3PX         0.00005   0.00000   0.00000   0.00000   0.00000
  21        3PY         0.00000   0.00013   0.00003  -0.00035  -0.00133
  22        3PZ         0.00000  -0.00003  -0.00003   0.00011   0.00039
  23        4S          0.00000   0.00456   0.00248   0.00347  -0.01274
  24        4PX        -0.00003   0.00000   0.00000   0.00000   0.00000
  25        4PY         0.00000  -0.00068  -0.00028  -0.00202   0.00227
  26        4PZ         0.00000   0.00020   0.00011   0.00048  -0.00068
  27        5S          0.00000  -0.00703  -0.00219  -0.00497   0.01795
  28        5PX         0.00003   0.00000   0.00000   0.00000   0.00000
  29        5PY         0.00000   0.00220   0.00066   0.00183  -0.00580
  30        5PZ         0.00000  -0.00068  -0.00040   0.00017   0.00175
  31 3   Cl 1S          0.70464  -0.40682   0.57534  -0.00004   0.11706
  32        2S          0.00887  -0.00512   0.00726   0.00010  -0.42099
  33        2PX        -0.00006   0.00003  -0.00004   0.00003   0.00340
  34        2PY         0.00003  -0.00002   0.00002  -0.00002  -0.00194
  35        2PZ         0.00002  -0.00001   0.00002  -0.00001  -0.00133
  36        3S         -0.00356   0.00205  -0.00261  -0.00025  -0.01045
  37        3PX         0.00011  -0.00004   0.00003  -0.00031   0.00052
  38        3PY        -0.00004   0.00007  -0.00002   0.00018  -0.00043
  39        3PZ        -0.00002   0.00001  -0.00003   0.00011  -0.00020
  40        4S          0.00395  -0.00228   0.00248   0.00347   0.00637
  41        4PX        -0.00052   0.00028  -0.00025  -0.00175  -0.00094
  42        4PY         0.00028  -0.00019   0.00014   0.00101   0.00063
  43        4PZ         0.00018  -0.00010   0.00011   0.00048   0.00034
  44        5S         -0.00609   0.00352  -0.00219  -0.00497  -0.00897
  45        5PX         0.00166  -0.00094   0.00057   0.00159   0.00245
  46        5PY        -0.00094   0.00057  -0.00033  -0.00092  -0.00156
  47        5PZ        -0.00059   0.00034  -0.00040   0.00017  -0.00087
  48 4   Cl 1S         -0.70464  -0.40682   0.57534  -0.00004   0.11706
  49        2S         -0.00887  -0.00512   0.00726   0.00010  -0.42099
  50        2PX        -0.00006  -0.00003   0.00004  -0.00003  -0.00340
  51        2PY        -0.00003  -0.00002   0.00002  -0.00002  -0.00194
  52        2PZ        -0.00002  -0.00001   0.00002  -0.00001  -0.00133
  53        3S          0.00356   0.00205  -0.00261  -0.00025  -0.01045
  54        3PX         0.00011   0.00004  -0.00003   0.00031  -0.00052
  55        3PY         0.00004   0.00007  -0.00002   0.00018  -0.00043
  56        3PZ         0.00002   0.00001  -0.00003   0.00011  -0.00020
  57        4S         -0.00395  -0.00228   0.00248   0.00347   0.00637
  58        4PX        -0.00052  -0.00028   0.00025   0.00175   0.00094
  59        4PY        -0.00028  -0.00019   0.00014   0.00101   0.00063
  60        4PZ        -0.00018  -0.00010   0.00011   0.00048   0.00034
  61        5S          0.00609   0.00352  -0.00219  -0.00497  -0.00897
  62        5PX         0.00166   0.00094  -0.00057  -0.00159  -0.00245
  63        5PY         0.00094   0.00057  -0.00033  -0.00092  -0.00156
  64        5PZ         0.00059   0.00034  -0.00040   0.00017  -0.00087
  65 5   H  1S          0.00000   0.00000   0.00007   0.00022  -0.00000
  66        2S          0.00000  -0.00000  -0.00020   0.00343   0.00000
                           6         7         8         9        10
                        (E)--O    (A1)--O   (A1)--O   (E)--O    (E)--O
     Eigenvalues --   -10.60227 -10.60224  -8.07099  -8.07098  -8.07098
   1 1   C  1S          0.00000  -0.00028  -0.00007  -0.00000   0.00000
   2        2S          0.00000  -0.00003  -0.00065  -0.00000   0.00000
   3        2PX        -0.00003   0.00000   0.00000   0.00000   0.00055
   4        2PY         0.00000   0.00000  -0.00000   0.00055   0.00000
   5        2PZ         0.00000  -0.00001  -0.00010  -0.00000   0.00000
   6        3S          0.00000   0.00230  -0.00010  -0.00000   0.00000
   7        3PX         0.00162   0.00000   0.00000   0.00000  -0.00100
   8        3PY         0.00000  -0.00000   0.00000  -0.00100   0.00000
   9        3PZ         0.00000  -0.00047  -0.00032  -0.00000   0.00000
  10        4S          0.00000  -0.00906  -0.02727  -0.00000   0.00000
  11        4PX        -0.00693   0.00000   0.00000   0.00000  -0.00207
  12        4PY         0.00000   0.00000   0.00000  -0.00207   0.00000
  13        4PZ         0.00000  -0.00080   0.00735   0.00000   0.00000
  14 2   Cl 1S          0.00000  -0.16557  -0.00179  -0.00255   0.00000
  15        2S          0.00000   0.59534   0.00659   0.00921   0.00000
  16        2PX         0.00002   0.00000   0.00000   0.00000  -0.00037
  17        2PY         0.00000  -0.00556   0.54837   0.77547   0.00000
  18        2PZ         0.00000   0.00187  -0.16628  -0.23549   0.00000
  19        3S          0.00000   0.01405  -0.00089  -0.00197   0.00000
  20        3PX        -0.00012   0.00000   0.00000   0.00000   0.00005
  21        3PY         0.00000  -0.00080   0.01327   0.01862   0.00000
  22        3PZ         0.00000   0.00031  -0.00402  -0.00559   0.00000
  23        4S          0.00000  -0.00717   0.00045   0.00269   0.00000
  24        4PX         0.00009   0.00000   0.00000   0.00000  -0.00050
  25        4PY         0.00000   0.00113  -0.00448  -0.00767   0.00000
  26        4PZ         0.00000  -0.00043   0.00161   0.00207   0.00000
  27        5S          0.00000   0.00493   0.01000  -0.00023   0.00000
  28        5PX        -0.00014   0.00000   0.00000   0.00000   0.00084
  29        5PY         0.00000  -0.00160  -0.00135   0.00296   0.00000
  30        5PZ         0.00000   0.00111  -0.00098  -0.00034   0.00000
  31 3   Cl 1S         -0.20275  -0.16557  -0.00179   0.00127  -0.00221
  32        2S          0.72918   0.59534   0.00659  -0.00461   0.00798
  33        2PX        -0.00587  -0.00481   0.47490  -0.33595   0.58151
  34        2PY         0.00340   0.00278  -0.27419   0.19359  -0.33595
  35        2PZ         0.00230   0.00187  -0.16628   0.11774  -0.20394
  36        3S          0.01810   0.01405  -0.00089   0.00098  -0.00170
  37        3PX        -0.00103  -0.00069   0.01149  -0.00804   0.01398
  38        3PY         0.00052   0.00040  -0.00663   0.00469  -0.00804
  39        3PZ         0.00034   0.00031  -0.00402   0.00280  -0.00484
  40        4S         -0.01103  -0.00717   0.00045  -0.00135   0.00233
  41        4PX         0.00172   0.00097  -0.00388   0.00310  -0.00588
  42        4PY        -0.00094  -0.00056   0.00224  -0.00229   0.00310
  43        4PZ        -0.00059  -0.00043   0.00161  -0.00103   0.00179
  44        5S          0.01554   0.00493   0.01000   0.00012  -0.00020
  45        5PX        -0.00439  -0.00139  -0.00117  -0.00092   0.00243
  46        5PY         0.00245   0.00080   0.00068   0.00137  -0.00092
  47        5PZ         0.00151   0.00111  -0.00098   0.00017  -0.00029
  48 4   Cl 1S          0.20275  -0.16557  -0.00179   0.00127   0.00221
  49        2S         -0.72918   0.59534   0.00659  -0.00461  -0.00798
  50        2PX        -0.00587   0.00481  -0.47490   0.33595   0.58151
  51        2PY        -0.00340   0.00278  -0.27419   0.19359   0.33595
  52        2PZ        -0.00230   0.00187  -0.16628   0.11774   0.20394
  53        3S         -0.01810   0.01405  -0.00089   0.00098   0.00170
  54        3PX        -0.00103   0.00069  -0.01149   0.00804   0.01398
  55        3PY        -0.00052   0.00040  -0.00663   0.00469   0.00804
  56        3PZ        -0.00034   0.00031  -0.00402   0.00280   0.00484
  57        4S          0.01103  -0.00717   0.00045  -0.00135  -0.00233
  58        4PX         0.00172  -0.00097   0.00388  -0.00310  -0.00588
  59        4PY         0.00094  -0.00056   0.00224  -0.00229  -0.00310
  60        4PZ         0.00059  -0.00043   0.00161  -0.00103  -0.00179
  61        5S         -0.01554   0.00493   0.01000   0.00012   0.00020
  62        5PX        -0.00439   0.00139   0.00117   0.00092   0.00243
  63        5PY        -0.00245   0.00080   0.00068   0.00137   0.00092
  64        5PZ        -0.00151   0.00111  -0.00098   0.00017   0.00029
  65 5   H  1S          0.00000  -0.00013  -0.00033  -0.00000   0.00000
  66        2S          0.00000   0.00033   0.00032   0.00000   0.00000
                          11        12        13        14        15
                        (A2)--O   (E)--O    (E)--O    (E)--O    (E)--O
     Eigenvalues --    -8.06624  -8.06624  -8.06624  -8.06618  -8.06618
   1 1   C  1S          0.00000  -0.00000   0.00000  -0.00000   0.00000
   2        2S          0.00000  -0.00000   0.00000  -0.00000   0.00000
   3        2PX         0.00000   0.00000  -0.00005   0.00000  -0.00010
   4        2PY         0.00000  -0.00005   0.00000  -0.00010   0.00000
   5        2PZ         0.00000   0.00000   0.00000  -0.00000   0.00000
   6        3S          0.00000   0.00000   0.00000   0.00000   0.00000
   7        3PX        -0.00000   0.00000   0.00021   0.00000   0.00049
   8        3PY         0.00000   0.00021   0.00000   0.00049   0.00000
   9        3PZ         0.00000  -0.00000   0.00000   0.00000   0.00000
  10        4S          0.00000  -0.00000   0.00000  -0.00000   0.00000
  11        4PX        -0.00000   0.00000  -0.00130   0.00000  -0.00249
  12        4PY         0.00000  -0.00130   0.00000  -0.00249   0.00000
  13        4PZ         0.00000   0.00000   0.00000  -0.00000   0.00000
  14 2   Cl 1S          0.00000  -0.00001   0.00000   0.00008   0.00000
  15        2S          0.00000  -0.00002   0.00000  -0.00028   0.00000
  16        2PX         0.57354   0.00000   0.81113   0.00000   0.00488
  17        2PY         0.00000  -0.00106   0.00000   0.23568   0.00000
  18        2PZ         0.00000  -0.00478   0.00000   0.77613   0.00000
  19        3S          0.00000  -0.00024   0.00000  -0.00000   0.00000
  20        3PX         0.01229   0.00000   0.01716   0.00000   0.00012
  21        3PY         0.00000  -0.00000   0.00000   0.00505   0.00000
  22        3PZ         0.00000  -0.00009   0.00000   0.01647   0.00000
  23        4S          0.00000   0.00031   0.00000  -0.00029   0.00000
  24        4PX        -0.00447   0.00000  -0.00529   0.00000  -0.00030
  25        4PY         0.00000  -0.00037   0.00000  -0.00165   0.00000
  26        4PZ         0.00000  -0.00003   0.00000  -0.00545   0.00000
  27        5S          0.00000   0.00132   0.00000   0.00267   0.00000
  28        5PX         0.00262   0.00000   0.00197   0.00000   0.00055
  29        5PY         0.00000  -0.00057   0.00000   0.00002   0.00000
  30        5PZ         0.00000   0.00029   0.00000   0.00282   0.00000
  31 3   Cl 1S         -0.00000   0.00000  -0.00001  -0.00004   0.00007
  32        2S          0.00000   0.00001  -0.00002   0.00014  -0.00024
  33        2PX        -0.28677   0.35169   0.20199  -0.09994   0.17798
  34        2PY        -0.49670   0.60808   0.35169   0.06258  -0.09994
  35        2PZ        -0.00000   0.00239  -0.00414  -0.38806   0.67214
  36        3S         -0.00000   0.00012  -0.00021   0.00000  -0.00000
  37        3PX        -0.00615   0.00743   0.00429  -0.00213   0.00382
  38        3PY        -0.01064   0.01287   0.00743   0.00136  -0.00213
  39        3PZ        -0.00000   0.00005  -0.00008  -0.00824   0.01426
  40        4S         -0.00000  -0.00015   0.00027   0.00015  -0.00025
  41        4PX         0.00223  -0.00213  -0.00160   0.00059  -0.00131
  42        4PY         0.00387  -0.00406  -0.00213  -0.00064   0.00059
  43        4PZ         0.00000   0.00001  -0.00002   0.00272  -0.00472
  44        5S          0.00000  -0.00066   0.00115  -0.00133   0.00231
  45        5PX        -0.00131   0.00110   0.00006   0.00023   0.00015
  46        5PY        -0.00227   0.00133   0.00110   0.00042   0.00023
  47        5PZ        -0.00000  -0.00014   0.00025  -0.00141   0.00244
  48 4   Cl 1S          0.00000   0.00000   0.00001  -0.00004  -0.00007
  49        2S         -0.00000   0.00001   0.00002   0.00014   0.00024
  50        2PX        -0.28677  -0.35169   0.20199   0.09994   0.17798
  51        2PY         0.49670   0.60808  -0.35169   0.06258   0.09994
  52        2PZ         0.00000   0.00239   0.00414  -0.38806  -0.67214
  53        3S          0.00000   0.00012   0.00021   0.00000   0.00000
  54        3PX        -0.00615  -0.00743   0.00429   0.00213   0.00382
  55        3PY         0.01064   0.01287  -0.00743   0.00136   0.00213
  56        3PZ         0.00000   0.00005   0.00008  -0.00824  -0.01426
  57        4S          0.00000  -0.00015  -0.00027   0.00015   0.00025
  58        4PX         0.00223   0.00213  -0.00160  -0.00059  -0.00131
  59        4PY        -0.00387  -0.00406   0.00213  -0.00064  -0.00059
  60        4PZ        -0.00000   0.00001   0.00002   0.00272   0.00472
  61        5S         -0.00000  -0.00066  -0.00115  -0.00133  -0.00231
  62        5PX        -0.00131  -0.00110   0.00006  -0.00023   0.00015
  63        5PY         0.00227   0.00133  -0.00110   0.00042  -0.00023
  64        5PZ         0.00000  -0.00014  -0.00025  -0.00141  -0.00244
  65 5   H  1S          0.00000  -0.00000   0.00000  -0.00000   0.00000
  66        2S          0.00000   0.00000   0.00000   0.00000   0.00000
                          16        17        18        19        20
                        (A1)--O   (A1)--O   (E)--O    (E)--O    (A1)--O
     Eigenvalues --    -8.06617  -1.26911  -1.13217  -1.13217  -0.89169
   1 1   C  1S         -0.00001  -0.13613   0.00000   0.00000  -0.14371
   2        2S         -0.00010   0.23908   0.00000   0.00000   0.26965
   3        2PX         0.00000   0.00000   0.14987   0.00000   0.00000
   4        2PY         0.00000  -0.00000   0.00000   0.14987   0.00000
   5        2PZ        -0.00010  -0.03037   0.00000  -0.00000   0.18349
   6        3S          0.00035   0.34516   0.00000  -0.00000   0.47125
   7        3PX         0.00000   0.00000   0.05590   0.00000   0.00000
   8        3PY        -0.00000   0.00000   0.00000   0.05590  -0.00000
   9        3PZ         0.00069  -0.02298   0.00000   0.00000   0.06800
  10        4S         -0.00326  -0.03612   0.00000   0.00000   0.07425
  11        4PX         0.00000   0.00000   0.00254   0.00000   0.00000
  12        4PY         0.00000   0.00000   0.00000   0.00254   0.00000
  13        4PZ        -0.00019   0.02550   0.00000  -0.00000  -0.01580
  14 2   Cl 1S          0.00006   0.03516   0.00000   0.06509  -0.02910
  15        2S         -0.00019  -0.15896   0.00000  -0.29788   0.13481
  16        2PX         0.00000   0.00000  -0.00825   0.00000   0.00000
  17        2PY         0.16643   0.03718   0.00000   0.02731   0.04281
  18        2PZ         0.54890  -0.01037   0.00000  -0.01149  -0.02780
  19        3S          0.00011   0.31739   0.00000   0.58744  -0.26690
  20        3PX         0.00000   0.00000   0.01992   0.00000   0.00000
  21        3PY         0.00352  -0.08506   0.00000  -0.06608  -0.10194
  22        3PZ         0.01155   0.02353   0.00000   0.02805   0.06751
  23        4S         -0.00015   0.07338   0.00000   0.26630  -0.20966
  24        4PX         0.00000   0.00000  -0.00294   0.00000   0.00000
  25        4PY        -0.00105   0.02037   0.00000  -0.01083   0.01285
  26        4PZ        -0.00358  -0.00294   0.00000   0.00144   0.00060
  27        5S          0.00118   0.01077   0.00000  -0.05458  -0.02103
  28        5PX         0.00000   0.00000   0.00788   0.00000   0.00000
  29        5PY         0.00014  -0.01044   0.00000   0.02217  -0.00207
  30        5PZ         0.00128  -0.00403   0.00000  -0.00162   0.00406
  31 3   Cl 1S          0.00006   0.03516   0.05637  -0.03254  -0.02910
  32        2S         -0.00019  -0.15896  -0.25797   0.14894   0.13481
  33        2PX         0.14413   0.03220   0.01842  -0.01540   0.03708
  34        2PY        -0.08321  -0.01859  -0.01540   0.00064  -0.02141
  35        2PZ         0.54890  -0.01037  -0.00995   0.00574  -0.02780
  36        3S          0.00011   0.31739   0.50874  -0.29372  -0.26690
  37        3PX         0.00305  -0.07367  -0.04458   0.03724  -0.08828
  38        3PY        -0.00176   0.04253   0.03724  -0.00158   0.05097
  39        3PZ         0.01155   0.02353   0.02429  -0.01402   0.06751
  40        4S         -0.00015   0.07338   0.23062  -0.13315  -0.20966
  41        4PX        -0.00091   0.01764  -0.00886   0.00342   0.01112
  42        4PY         0.00052  -0.01018   0.00342  -0.00491  -0.00642
  43        4PZ        -0.00358  -0.00294   0.00125  -0.00072   0.00060
  44        5S          0.00118   0.01077  -0.04727   0.02729  -0.02103
  45        5PX         0.00012  -0.00904   0.01860  -0.00619  -0.00179
  46        5PY        -0.00007   0.00522  -0.00619   0.01145   0.00103
  47        5PZ         0.00128  -0.00403  -0.00141   0.00081   0.00406
  48 4   Cl 1S          0.00006   0.03516  -0.05637  -0.03254  -0.02910
  49        2S         -0.00019  -0.15896   0.25797   0.14894   0.13481
  50        2PX        -0.14413  -0.03220   0.01842   0.01540  -0.03708
  51        2PY        -0.08321  -0.01859   0.01540   0.00064  -0.02141
  52        2PZ         0.54890  -0.01037   0.00995   0.00574  -0.02780
  53        3S          0.00011   0.31739  -0.50874  -0.29372  -0.26690
  54        3PX        -0.00305   0.07367  -0.04458  -0.03724   0.08828
  55        3PY        -0.00176   0.04253  -0.03724  -0.00158   0.05097
  56        3PZ         0.01155   0.02353  -0.02429  -0.01402   0.06751
  57        4S         -0.00015   0.07338  -0.23062  -0.13315  -0.20966
  58        4PX         0.00091  -0.01764  -0.00886  -0.00342  -0.01112
  59        4PY         0.00052  -0.01018  -0.00342  -0.00491  -0.00642
  60        4PZ        -0.00358  -0.00294  -0.00125  -0.00072   0.00060
  61        5S          0.00118   0.01077   0.04727   0.02729  -0.02103
  62        5PX        -0.00012   0.00904   0.01860   0.00619   0.00179
  63        5PY        -0.00007   0.00522   0.00619   0.01145   0.00103
  64        5PZ         0.00128  -0.00403   0.00141   0.00081   0.00406
  65 5   H  1S         -0.00004   0.06083   0.00000   0.00000   0.19882
  66        2S          0.00022  -0.02694   0.00000  -0.00000   0.03054
                          21        22        23        24        25
                        (A1)--O   (E)--O    (E)--O    (E)--O    (E)--O
     Eigenvalues --    -0.69678  -0.63131  -0.63131  -0.51053  -0.51053
   1 1   C  1S          0.04031   0.00000   0.00000   0.00000   0.00000
   2        2S         -0.04497   0.00000   0.00000   0.00000   0.00000
   3        2PX         0.00000   0.33056   0.00000   0.00000   0.09330
   4        2PY        -0.00000   0.00000  -0.33056   0.09330   0.00000
   5        2PZ         0.38180   0.00000  -0.00000   0.00000   0.00000
   6        3S         -0.24864   0.00000  -0.00000  -0.00000   0.00000
   7        3PX         0.00000   0.30090   0.00000   0.00000   0.04638
   8        3PY        -0.00000   0.00000  -0.30090   0.04638   0.00000
   9        3PZ         0.28431   0.00000   0.00000  -0.00000   0.00000
  10        4S          0.22025   0.00000   0.00000  -0.00000   0.00000
  11        4PX         0.00000  -0.05414   0.00000   0.00000   0.04086
  12        4PY         0.00000   0.00000   0.05414   0.04086   0.00000
  13        4PZ        -0.04453   0.00000  -0.00000   0.00000   0.00000
  14 2   Cl 1S          0.01239   0.00000   0.01812  -0.00166   0.00000
  15        2S         -0.05873   0.00000  -0.08514   0.00755   0.00000
  16        2PX         0.00000  -0.10024   0.00000   0.00000   0.14897
  17        2PY        -0.09120   0.00000  -0.14053   0.01258   0.00000
  18        2PZ        -0.04065   0.00000   0.06525  -0.17343   0.00000
  19        3S          0.11285   0.00000   0.16938  -0.01661   0.00000
  20        3PX         0.00000   0.25701   0.00000   0.00000  -0.38682
  21        3PY         0.22692   0.00000   0.35113  -0.03263   0.00000
  22        3PZ         0.10509   0.00000  -0.16588   0.45104   0.00000
  23        4S          0.15070   0.00000   0.22951  -0.01186   0.00000
  24        4PX         0.00000   0.09014   0.00000   0.00000  -0.21695
  25        4PY         0.02934   0.00000   0.06211   0.00528   0.00000
  26        4PZ         0.03669   0.00000  -0.02705   0.23718   0.00000
  27        5S         -0.07449   0.00000  -0.01683  -0.06784   0.00000
  28        5PX         0.00000   0.01958   0.00000   0.00000  -0.00512
  29        5PY         0.03065   0.00000   0.00115   0.01570   0.00000
  30        5PZ         0.00149   0.00000  -0.01513  -0.00852   0.00000
  31 3   Cl 1S          0.01239  -0.01569  -0.00906   0.00083  -0.00144
  32        2S         -0.05873   0.07373   0.04257  -0.00378   0.00654
  33        2PX        -0.07898   0.08034   0.10426   0.05906   0.04668
  34        2PY         0.04560  -0.10426   0.04004   0.11487   0.05906
  35        2PZ        -0.04065  -0.05651  -0.03263   0.08672  -0.15020
  36        3S          0.11285  -0.14669  -0.08469   0.00830  -0.01438
  37        3PX         0.19652  -0.19909  -0.26333  -0.15337  -0.12117
  38        3PY        -0.11346   0.26333  -0.10498  -0.29827  -0.15337
  39        3PZ         0.10509   0.14366   0.08294  -0.22552   0.39061
  40        4S          0.15070  -0.19877  -0.11476   0.00593  -0.01027
  41        4PX         0.02541  -0.02404  -0.06592  -0.09623  -0.05028
  42        4PY        -0.01467   0.06592  -0.05208  -0.16140  -0.09623
  43        4PZ         0.03669   0.02343   0.01353  -0.11859   0.20540
  44        5S         -0.07449   0.01458   0.00842   0.03392  -0.05875
  45        5PX         0.02655   0.00403  -0.00898  -0.00901   0.01050
  46        5PY        -0.01533   0.00898  -0.01440   0.00009  -0.00901
  47        5PZ         0.00149   0.01311   0.00757   0.00426  -0.00738
  48 4   Cl 1S          0.01239   0.01569  -0.00906   0.00083   0.00144
  49        2S         -0.05873  -0.07373   0.04257  -0.00378  -0.00654
  50        2PX         0.07898   0.08034  -0.10426  -0.05906   0.04668
  51        2PY         0.04560   0.10426   0.04004   0.11487  -0.05906
  52        2PZ        -0.04065   0.05651  -0.03263   0.08672   0.15020
  53        3S          0.11285   0.14669  -0.08469   0.00830   0.01438
  54        3PX        -0.19652  -0.19909   0.26333   0.15337  -0.12117
  55        3PY        -0.11346  -0.26333  -0.10498  -0.29827   0.15337
  56        3PZ         0.10509  -0.14366   0.08294  -0.22552  -0.39061
  57        4S          0.15070   0.19877  -0.11476   0.00593   0.01027
  58        4PX        -0.02541  -0.02404   0.06592   0.09623  -0.05028
  59        4PY        -0.01467  -0.06592  -0.05208  -0.16140   0.09623
  60        4PZ         0.03669  -0.02343   0.01353  -0.11859  -0.20540
  61        5S         -0.07449  -0.01458   0.00842   0.03392   0.05875
  62        5PX        -0.02655   0.00403   0.00898   0.00901   0.01050
  63        5PY        -0.01533  -0.00898  -0.01440   0.00009   0.00901
  64        5PZ         0.00149  -0.01311   0.00757   0.00426   0.00738
  65 5   H  1S          0.18305   0.00000   0.00000   0.00000   0.00000
  66        2S          0.06222   0.00000  -0.00000   0.00000   0.00000
                          26        27        28        29        30
                        (E)--O    (E)--O    (A1)--O   (A2)--O   (A1)--V
     Eigenvalues --    -0.47741  -0.47741  -0.47565  -0.46531   0.07606
   1 1   C  1S          0.00000  -0.00000   0.00433   0.00000  -0.06228
   2        2S          0.00000   0.00000  -0.02767   0.00000   0.12321
   3        2PX        -0.12382   0.00000   0.00000   0.00000   0.00000
   4        2PY         0.00000  -0.12382  -0.00000   0.00000  -0.00000
   5        2PZ         0.00000   0.00000  -0.21468   0.00000  -0.17647
   6        3S          0.00000  -0.00000   0.06214   0.00000   0.43778
   7        3PX        -0.03796   0.00000   0.00000  -0.00000   0.00000
   8        3PY         0.00000  -0.03796  -0.00000   0.00000  -0.00000
   9        3PZ         0.00000   0.00000  -0.04655   0.00000  -0.24861
  10        4S          0.00000   0.00000   0.02069   0.00000  10.22497
  11        4PX         0.02811   0.00000   0.00000   0.00000   0.00000
  12        4PY         0.00000   0.02811  -0.00000   0.00000   0.00000
  13        4PZ         0.00000  -0.00000   0.02752   0.00000  -1.51260
  14 2   Cl 1S          0.00000   0.00040  -0.00020   0.00000  -0.01227
  15        2S          0.00000  -0.00147   0.00104   0.00000   0.05994
  16        2PX        -0.13589   0.00000   0.00000  -0.17191   0.00000
  17        2PY         0.00000  -0.14202   0.00489   0.00000  -0.04458
  18        2PZ         0.00000  -0.13168  -0.15321   0.00000   0.00240
  19        3S          0.00000   0.00497  -0.00144   0.00000  -0.11502
  20        3PX         0.35635   0.00000   0.00000   0.45214   0.00000
  21        3PY         0.00000   0.37196  -0.01242   0.00000   0.12942
  22        3PZ         0.00000   0.34517   0.40177   0.00000  -0.00615
  23        4S          0.00000  -0.02001  -0.00012   0.00000  -0.32301
  24        4PX         0.19230   0.00000   0.00000   0.24473   0.00000
  25        4PY         0.00000   0.18360   0.00797   0.00000   0.10308
  26        4PZ         0.00000   0.19418   0.21252   0.00000  -0.01902
  27        5S          0.00000   0.05293  -0.01389   0.00000  -3.03906
  28        5PX        -0.00704   0.00000   0.00000   0.00568   0.00000
  29        5PY         0.00000  -0.02709   0.00472   0.00000   1.45935
  30        5PZ         0.00000   0.00636  -0.00004   0.00000  -0.23914
  31 3   Cl 1S          0.00035  -0.00020  -0.00020   0.00000  -0.01227
  32        2S         -0.00128   0.00074   0.00104  -0.00000   0.05994
  33        2PX        -0.14049   0.00266   0.00423   0.08596  -0.03860
  34        2PY         0.00266  -0.13742  -0.00244   0.14888   0.02229
  35        2PZ        -0.11404   0.06584  -0.15321  -0.00000   0.00240
  36        3S          0.00430  -0.00248  -0.00144  -0.00000  -0.11502
  37        3PX         0.36806  -0.00676  -0.01076  -0.22607   0.11208
  38        3PY        -0.00676   0.36025   0.00621  -0.39156  -0.06471
  39        3PZ         0.29892  -0.17258   0.40177   0.00000  -0.00615
  40        4S         -0.01733   0.01001  -0.00012   0.00000  -0.32301
  41        4PX         0.18578   0.00377   0.00690  -0.12237   0.08927
  42        4PY         0.00377   0.19013  -0.00399  -0.21195  -0.05154
  43        4PZ         0.16817  -0.09709   0.21252   0.00000  -0.01902
  44        5S          0.04584  -0.02647  -0.01389  -0.00000  -3.03906
  45        5PX        -0.02207   0.00868   0.00409  -0.00284   1.26384
  46        5PY         0.00868  -0.01205  -0.00236  -0.00492  -0.72968
  47        5PZ         0.00551  -0.00318  -0.00004  -0.00000  -0.23914
  48 4   Cl 1S         -0.00035  -0.00020  -0.00020  -0.00000  -0.01227
  49        2S          0.00128   0.00074   0.00104   0.00000   0.05994
  50        2PX        -0.14049  -0.00266  -0.00423   0.08596   0.03860
  51        2PY        -0.00266  -0.13742  -0.00244  -0.14888   0.02229
  52        2PZ         0.11404   0.06584  -0.15321   0.00000   0.00240
  53        3S         -0.00430  -0.00248  -0.00144   0.00000  -0.11502
  54        3PX         0.36806   0.00676   0.01076  -0.22607  -0.11208
  55        3PY         0.00676   0.36025   0.00621   0.39156  -0.06471
  56        3PZ        -0.29892  -0.17258   0.40177  -0.00000  -0.00615
  57        4S          0.01733   0.01001  -0.00012  -0.00000  -0.32301
  58        4PX         0.18578  -0.00377  -0.00690  -0.12237  -0.08927
  59        4PY        -0.00377   0.19013  -0.00399   0.21195  -0.05154
  60        4PZ        -0.16817  -0.09709   0.21252  -0.00000  -0.01902
  61        5S         -0.04584  -0.02647  -0.01389   0.00000  -3.03906
  62        5PX        -0.02207  -0.00868  -0.00409  -0.00284  -1.26384
  63        5PY        -0.00868  -0.01205  -0.00236   0.00492  -0.72968
  64        5PZ        -0.00551  -0.00318  -0.00004   0.00000  -0.23914
  65 5   H  1S          0.00000   0.00000  -0.18331   0.00000   0.00408
  66        2S          0.00000   0.00000  -0.23128   0.00000  -0.17960
                          31        32        33        34        35
                        (A1)--V   (E)--V    (E)--V    (A1)--V   (E)--V
     Eigenvalues --     0.07776   0.09277   0.09277   0.12657   0.14088
   1 1   C  1S         -0.10228  -0.00000   0.00000   0.06261  -0.00000
   2        2S          0.18936  -0.00000   0.00000  -0.07952   0.00000
   3        2PX         0.00000   0.00000  -0.15977   0.00000   0.00000
   4        2PY        -0.00000  -0.15977   0.00000  -0.00000   0.22637
   5        2PZ         0.00062   0.00000   0.00000   0.15478  -0.00000
   6        3S          0.88852   0.00000   0.00000  -0.72630   0.00000
   7        3PX         0.00000   0.00000  -0.25044   0.00000   0.00000
   8        3PY        -0.00000  -0.25044   0.00000  -0.00000   0.49016
   9        3PZ        -0.05151  -0.00000   0.00000   0.38526  -0.00000
  10        4S          2.51150  -0.00000   0.00000   0.76270  -0.00000
  11        4PX         0.00000   0.00000  -3.73435   0.00000   0.00000
  12        4PY         0.00000  -3.73435   0.00000   0.00000  -0.04665
  13        4PZ        -1.94996   0.00000   0.00000   0.11251   0.00000
  14 2   Cl 1S         -0.00186   0.01375   0.00000   0.00029  -0.00691
  15        2S          0.00756  -0.05894   0.00000  -0.00363   0.03948
  16        2PX         0.00000   0.00000  -0.03094   0.00000   0.00000
  17        2PY        -0.05948   0.01367   0.00000   0.04833  -0.05527
  18        2PZ         0.00326  -0.02617   0.00000  -0.03950   0.01035
  19        3S         -0.02374   0.15832   0.00000  -0.00319  -0.04744
  20        3PX         0.00000   0.00000   0.08215   0.00000   0.00000
  21        3PY         0.15745  -0.05253   0.00000  -0.12896   0.15523
  22        3PZ        -0.01137   0.07402   0.00000   0.09191  -0.03594
  23        4S          0.02688   0.12485   0.00000   0.05517  -0.41034
  24        4PX         0.00000   0.00000   0.12680   0.00000   0.00000
  25        4PY         0.22926   0.04649   0.00000  -0.26804   0.25972
  26        4PZ         0.02273   0.08099   0.00000   0.31073   0.00405
  27        5S         -1.25122   4.82904   0.00000  -0.03057   0.89450
  28        5PX         0.00000   0.00000   0.28416   0.00000   0.00000
  29        5PY         0.48289  -2.16436   0.00000   0.08725  -0.13420
  30        5PZ         0.22740   0.71072   0.00000  -0.58322  -0.41754
  31 3   Cl 1S         -0.00186  -0.00688   0.01191   0.00029   0.00346
  32        2S          0.00756   0.02947  -0.05104  -0.00363  -0.01974
  33        2PX        -0.05151  -0.01932   0.00251   0.04186   0.01207
  34        2PY         0.02974  -0.01979  -0.01932  -0.02417  -0.03437
  35        2PZ         0.00326   0.01308  -0.02266  -0.03950  -0.00518
  36        3S         -0.02374  -0.07916   0.13711  -0.00319   0.02372
  37        3PX         0.13635   0.05832  -0.01886  -0.11168  -0.04444
  38        3PY        -0.07872   0.04848   0.05832   0.06448   0.07826
  39        3PZ        -0.01137  -0.03701   0.06410   0.09191   0.01797
  40        4S          0.02688  -0.06242   0.10812   0.05517   0.20517
  41        4PX         0.19855   0.03477   0.06656  -0.23213   0.02797
  42        4PY        -0.11463   0.10672   0.03477   0.13402   0.30815
  43        4PZ         0.02273  -0.04050   0.07014   0.31073  -0.00202
  44        5S         -1.25122  -2.41452   4.18208  -0.03057  -0.44725
  45        5PX         0.41819   1.06024  -1.55223   0.07556  -0.35814
  46        5PY        -0.24144  -0.32797   1.06024  -0.04363  -0.75452
  47        5PZ         0.22740  -0.35536   0.61551  -0.58322   0.20877
  48 4   Cl 1S         -0.00186  -0.00688  -0.01191   0.00029   0.00346
  49        2S          0.00756   0.02947   0.05104  -0.00363  -0.01974
  50        2PX         0.05151   0.01932   0.00251  -0.04186  -0.01207
  51        2PY         0.02974  -0.01979   0.01932  -0.02417  -0.03437
  52        2PZ         0.00326   0.01308   0.02266  -0.03950  -0.00518
  53        3S         -0.02374  -0.07916  -0.13711  -0.00319   0.02372
  54        3PX        -0.13635  -0.05832  -0.01886   0.11168   0.04444
  55        3PY        -0.07872   0.04848  -0.05832   0.06448   0.07826
  56        3PZ        -0.01137  -0.03701  -0.06410   0.09191   0.01797
  57        4S          0.02688  -0.06242  -0.10812   0.05517   0.20517
  58        4PX        -0.19855  -0.03477   0.06656   0.23213  -0.02797
  59        4PY        -0.11463   0.10672  -0.03477   0.13402   0.30815
  60        4PZ         0.02273  -0.04050  -0.07014   0.31073  -0.00202
  61        5S         -1.25122  -2.41452  -4.18208  -0.03057  -0.44725
  62        5PX        -0.41819  -1.06024  -1.55223  -0.07556   0.35814
  63        5PY        -0.24144  -0.32797  -1.06024  -0.04363  -0.75452
  64        5PZ         0.22740  -0.35536  -0.61551  -0.58322   0.20877
  65 5   H  1S         -0.03047  -0.00000   0.00000  -0.02531  -0.00000
  66        2S          0.15553   0.00000   0.00000  -0.07960   0.00000
                          36        37        38        39        40
                        (E)--V    (E)--V    (E)--V    (A1)--V   (E)--V
     Eigenvalues --     0.14088   0.14910   0.14910   0.16396   0.18190
   1 1   C  1S          0.00000   0.00000   0.00000  -0.06851   0.00000
   2        2S          0.00000   0.00000  -0.00000   0.06893  -0.00000
   3        2PX        -0.22637   0.00946   0.00000   0.00000   0.00000
   4        2PY         0.00000   0.00000   0.00946  -0.00000   0.15566
   5        2PZ         0.00000   0.00000   0.00000  -0.18770   0.00000
   6        3S          0.00000   0.00000  -0.00000   0.93210  -0.00000
   7        3PX        -0.49016   0.07182   0.00000   0.00000   0.00000
   8        3PY         0.00000   0.00000   0.07182   0.00000   0.47796
   9        3PZ         0.00000   0.00000   0.00000  -0.44735   0.00000
  10        4S          0.00000   0.00000   0.00000  -2.79379   0.00000
  11        4PX         0.04665   3.24983   0.00000   0.00000   0.00000
  12        4PY         0.00000   0.00000   3.24983   0.00000   5.43951
  13        4PZ         0.00000   0.00000  -0.00000   3.06624  -0.00000
  14 2   Cl 1S          0.00000   0.00000  -0.00013  -0.00103  -0.00529
  15        2S          0.00000   0.00000   0.00228   0.00257   0.02733
  16        2PX         0.02740  -0.00903   0.00000   0.00000   0.00000
  17        2PY         0.00000   0.00000  -0.01584  -0.06193  -0.06737
  18        2PZ         0.00000   0.00000   0.04581  -0.01015   0.00453
  19        3S          0.00000   0.00000   0.00392  -0.02002  -0.04748
  20        3PX        -0.05260   0.01666   0.00000   0.00000   0.00000
  21        3PY         0.00000   0.00000   0.03650   0.16128   0.16698
  22        3PZ         0.00000   0.00000  -0.10773   0.02099  -0.02765
  23        4S          0.00000   0.00000  -0.06258   0.07451  -0.23019
  24        4PX        -0.32430   0.10835   0.00000   0.00000   0.00000
  25        4PY         0.00000   0.00000   0.16837   0.39819   0.62709
  26        4PZ         0.00000   0.00000  -0.38408   0.11639   0.10148
  27        5S          0.00000   0.00000  -2.49863   0.77226  -4.83734
  28        5PX         0.96129  -1.09941   0.00000   0.00000   0.00000
  29        5PY         0.00000   0.00000  -0.01503  -0.68181  -0.11376
  30        5PZ         0.00000   0.00000   0.48739  -1.05024  -1.75095
  31 3   Cl 1S          0.00599  -0.00011   0.00006  -0.00103   0.00265
  32        2S         -0.03419   0.00197  -0.00114   0.00257  -0.01366
  33        2PX         0.04830  -0.01414   0.00295  -0.05363   0.04264
  34        2PY        -0.01207   0.00295  -0.01073   0.03096   0.00648
  35        2PZ        -0.00897   0.03967  -0.02291  -0.01015  -0.00227
  36        3S          0.04109   0.00339  -0.00196  -0.02002   0.02374
  37        3PX        -0.12957   0.03154  -0.00859   0.13967  -0.10625
  38        3PY         0.04444  -0.00859   0.02162  -0.08064  -0.01704
  39        3PZ         0.03112  -0.09330   0.05386   0.02099   0.01383
  40        4S          0.35536  -0.05420   0.03129   0.07451   0.11509
  41        4PX        -0.27586   0.15337  -0.02599   0.34485  -0.38222
  42        4PY        -0.02797  -0.02599   0.12336  -0.19910  -0.03493
  43        4PZ        -0.00351  -0.33262   0.19204   0.11639  -0.05074
  44        5S         -0.77466  -2.16387   1.24931   0.77226   2.41867
  45        5PX         0.34097  -0.28612  -0.46955  -0.59047  -0.36316
  46        5PY         0.35814  -0.46955  -0.82831   0.34091  -0.74277
  47        5PZ         0.36160   0.42209  -0.24370  -1.05024   0.87547
  48 4   Cl 1S         -0.00599   0.00011   0.00006  -0.00103   0.00265
  49        2S          0.03419  -0.00197  -0.00114   0.00257  -0.01366
  50        2PX         0.04830  -0.01414  -0.00295   0.05363  -0.04264
  51        2PY         0.01207  -0.00295  -0.01073   0.03096   0.00648
  52        2PZ         0.00897  -0.03967  -0.02291  -0.01015  -0.00227
  53        3S         -0.04109  -0.00339  -0.00196  -0.02002   0.02374
  54        3PX        -0.12957   0.03154   0.00859  -0.13967   0.10625
  55        3PY        -0.04444   0.00859   0.02162  -0.08064  -0.01704
  56        3PZ        -0.03112   0.09330   0.05386   0.02099   0.01383
  57        4S         -0.35536   0.05420   0.03129   0.07451   0.11509
  58        4PX        -0.27586   0.15337   0.02599  -0.34485   0.38222
  59        4PY         0.02797   0.02599   0.12336  -0.19910  -0.03493
  60        4PZ         0.00351   0.33262   0.19204   0.11639  -0.05074
  61        5S          0.77466   2.16387   1.24931   0.77226   2.41867
  62        5PX         0.34097  -0.28612   0.46955   0.59047   0.36316
  63        5PY        -0.35814   0.46955  -0.82831   0.34091  -0.74277
  64        5PZ        -0.36160  -0.42209  -0.24370  -1.05024   0.87547
  65 5   H  1S          0.00000   0.00000   0.00000   0.00511   0.00000
  66        2S          0.00000   0.00000  -0.00000  -0.06020  -0.00000
                          41        42        43        44        45
                        (E)--V    (A2)--V   (A1)--V   (E)--V    (E)--V
     Eigenvalues --     0.18190   0.19327   0.20404   0.21365   0.21365
   1 1   C  1S          0.00000   0.00000   0.06584   0.00000   0.00000
   2        2S          0.00000   0.00000  -0.09132  -0.00000   0.00000
   3        2PX         0.15566  -0.00000   0.00000   0.00000  -0.40478
   4        2PY         0.00000   0.00000  -0.00000   0.40478   0.00000
   5        2PZ         0.00000   0.00000   0.07608   0.00000   0.00000
   6        3S          0.00000   0.00000  -0.74418  -0.00000   0.00000
   7        3PX         0.47796  -0.00000   0.00000   0.00000  -1.16749
   8        3PY         0.00000   0.00000  -0.00000   1.16749   0.00000
   9        3PZ         0.00000   0.00000   0.27000   0.00000   0.00000
  10        4S          0.00000   0.00000  35.71773   0.00000   0.00000
  11        4PX         5.43951   0.00000   0.00000   0.00000   6.19953
  12        4PY         0.00000   0.00000   0.00000  -6.19953   0.00000
  13        4PZ         0.00000   0.00000  -6.38300  -0.00000   0.00000
  14 2   Cl 1S          0.00000   0.00000   0.01156  -0.01134   0.00000
  15        2S          0.00000   0.00000  -0.06795   0.06902   0.00000
  16        2PX         0.03110   0.02907   0.00000   0.00000  -0.04198
  17        2PY         0.00000   0.00000   0.05056  -0.09840   0.00000
  18        2PZ         0.00000   0.00000  -0.00343   0.05420   0.00000
  19        3S          0.00000   0.00000   0.07193  -0.06602   0.00000
  20        3PX        -0.07839  -0.06153   0.00000   0.00000   0.10757
  21        3PY         0.00000   0.00000  -0.14258   0.26826   0.00000
  22        3PZ         0.00000   0.00000   0.01299  -0.13976   0.00000
  23        4S          0.00000   0.00000   0.80089  -0.89311   0.00000
  24        4PX        -0.25560  -0.33888   0.00000   0.00000   0.35082
  25        4PY         0.00000   0.00000  -0.20188   0.75499   0.00000
  26        4PZ         0.00000   0.00000  -0.03703  -0.46734   0.00000
  27        5S          0.00000   0.00000 -12.93102   6.60154   0.00000
  28        5PX        -0.95245   1.71875   0.00000   0.00000  -1.53387
  29        5PY         0.00000   0.00000   4.26542  -1.71013   0.00000
  30        5PZ         0.00000   0.00000  -0.48380   1.76393   0.00000
  31 3   Cl 1S         -0.00458   0.00000   0.01156   0.00567   0.00982
  32        2S          0.02367  -0.00000  -0.06795  -0.03451  -0.05977
  33        2PX        -0.04275  -0.01453   0.04379   0.06079   0.06331
  34        2PY         0.04264  -0.02517  -0.02528   0.00688  -0.06079
  35        2PZ         0.00393  -0.00000  -0.00343  -0.02710  -0.04694
  36        3S         -0.04112   0.00000   0.07193   0.03301   0.05717
  37        3PX         0.10564   0.03077  -0.12348  -0.16274  -0.17430
  38        3PY        -0.10625   0.05329   0.07129  -0.01361   0.16274
  39        3PZ        -0.02395   0.00000   0.01299   0.06988   0.12104
  40        4S         -0.19935   0.00000   0.80089   0.44656   0.77346
  41        4PX         0.40642   0.16944  -0.17483  -0.47883  -0.47853
  42        4PY        -0.38222   0.29348   0.10094  -0.07437   0.47883
  43        4PZ         0.08788   0.00000  -0.03703   0.23367   0.40473
  44        5S         -4.18926  -0.00000 -12.93102  -3.30077  -5.71710
  45        5PX        -0.32343  -0.85938   3.69397   1.40469   0.89913
  46        5PY        -0.36316  -1.48848  -2.13271   0.72287  -1.40469
  47        5PZ        -1.51636  -0.00000  -0.48380  -0.88196  -1.52761
  48 4   Cl 1S          0.00458  -0.00000   0.01156   0.00567  -0.00982
  49        2S         -0.02367   0.00000  -0.06795  -0.03451   0.05977
  50        2PX        -0.04275  -0.01453  -0.04379  -0.06079   0.06331
  51        2PY        -0.04264   0.02517  -0.02528   0.00688   0.06079
  52        2PZ        -0.00393   0.00000  -0.00343  -0.02710   0.04694
  53        3S          0.04112  -0.00000   0.07193   0.03301  -0.05717
  54        3PX         0.10564   0.03077   0.12348   0.16274  -0.17430
  55        3PY         0.10625  -0.05329   0.07129  -0.01361  -0.16274
  56        3PZ         0.02395  -0.00000   0.01299   0.06988  -0.12104
  57        4S          0.19935  -0.00000   0.80089   0.44656  -0.77346
  58        4PX         0.40642   0.16944   0.17483   0.47883  -0.47853
  59        4PY         0.38222  -0.29348   0.10094  -0.07437  -0.47883
  60        4PZ        -0.08788  -0.00000  -0.03703   0.23367  -0.40473
  61        5S          4.18926   0.00000 -12.93102  -3.30077   5.71710
  62        5PX        -0.32343  -0.85938  -3.69397  -1.40469   0.89913
  63        5PY         0.36316   1.48848  -2.13271   0.72287   1.40469
  64        5PZ         1.51636   0.00000  -0.48380  -0.88196   1.52761
  65 5   H  1S          0.00000   0.00000   0.02992   0.00000   0.00000
  66        2S          0.00000   0.00000  -0.33391  -0.00000   0.00000
                          46        47        48        49        50
                        (A1)--V   (E)--V    (E)--V    (A1)--V   (A1)--V
     Eigenvalues --     0.23566   0.25143   0.25143   0.36426   0.72047
   1 1   C  1S          0.01174   0.00000   0.00000  -0.08501  -0.01642
   2        2S         -0.00429  -0.00000   0.00000   0.09106  -0.32123
   3        2PX         0.00000   0.00000  -0.05099   0.00000   0.00000
   4        2PY         0.00000  -0.05099   0.00000   0.00000  -0.00000
   5        2PZ        -0.14702  -0.00000   0.00000   0.26013   0.17593
   6        3S         -0.47597  -0.00000   0.00000   1.71279   2.32250
   7        3PX         0.00000   0.00000  -0.22782   0.00000   0.00000
   8        3PY         0.00000  -0.22782   0.00000  -0.00000   0.00000
   9        3PZ        -0.58609  -0.00000   0.00000   1.42574  -0.93848
  10        4S         32.14906   0.00000   0.00000  28.62265   0.48110
  11        4PX         0.00000   0.00000  -5.85757   0.00000   0.00000
  12        4PY         0.00000  -5.85757   0.00000  -0.00000   0.00000
  13        4PZ        -8.61520  -0.00000   0.00000  -4.96165  -0.85130
  14 2   Cl 1S         -0.00478  -0.01047   0.00000  -0.00053   0.02437
  15        2S          0.03430   0.08079   0.00000   0.01548   0.00274
  16        2PX         0.00000   0.00000   0.01719   0.00000   0.00000
  17        2PY        -0.03751   0.02109   0.00000  -0.01403   0.14971
  18        2PZ        -0.01237  -0.00044   0.00000   0.01611   0.02695
  19        3S         -0.00991   0.00112   0.00000   0.03782   0.65973
  20        3PX         0.00000   0.00000  -0.04586   0.00000   0.00000
  21        3PY         0.08226  -0.04825   0.00000   0.02453  -0.59628
  22        3PZ         0.03771  -0.00337   0.00000  -0.03474  -0.11167
  23        4S         -0.57520  -1.61535   0.00000  -0.35878  -1.86936
  24        4PX         0.00000   0.00000  -0.10900   0.00000   0.00000
  25        4PY         0.68610  -0.19615   0.00000   0.41081   1.50472
  26        4PZ        -0.01183   0.04776   0.00000  -0.34855   0.07521
  27        5S        -11.32920  12.11120   0.00000  -9.77657   0.17924
  28        5PX         0.00000   0.00000   0.15463   0.00000   0.00000
  29        5PY         2.83227  -3.97303   0.00000   2.50196  -0.61019
  30        5PZ         0.63172   1.27851   0.00000  -0.03902   0.25491
  31 3   Cl 1S         -0.00478   0.00524  -0.00907  -0.00053   0.02437
  32        2S          0.03430  -0.04040   0.06997   0.01548   0.00274
  33        2PX        -0.03249  -0.00169   0.02012  -0.01215   0.12966
  34        2PY         0.01876   0.01817  -0.00169   0.00702  -0.07486
  35        2PZ        -0.01237   0.00022  -0.00038   0.01611   0.02695
  36        3S         -0.00991  -0.00056   0.00097   0.03782   0.65973
  37        3PX         0.07124   0.00104  -0.04765   0.02124  -0.51640
  38        3PY        -0.04113  -0.04645   0.00104  -0.01226   0.29814
  39        3PZ         0.03771   0.00169  -0.00292  -0.03474  -0.11167
  40        4S         -0.57520   0.80768  -1.39894  -0.35878  -1.86936
  41        4PX         0.59418   0.03774  -0.17436   0.35577   1.30312
  42        4PY        -0.34305  -0.13078   0.03774  -0.20540  -0.75236
  43        4PZ        -0.01183  -0.02388   0.04136  -0.34855   0.07521
  44        5S        -11.32920  -6.05560  10.48861  -9.77657   0.17924
  45        5PX         2.45282   1.78733  -2.94111   2.16676  -0.52844
  46        5PY        -1.41613  -0.87729   1.78733  -1.25098   0.30509
  47        5PZ         0.63172  -0.63926   1.10722  -0.03902   0.25491
  48 4   Cl 1S         -0.00478   0.00524   0.00907  -0.00053   0.02437
  49        2S          0.03430  -0.04040  -0.06997   0.01548   0.00274
  50        2PX         0.03249   0.00169   0.02012   0.01215  -0.12966
  51        2PY         0.01876   0.01817   0.00169   0.00702  -0.07486
  52        2PZ        -0.01237   0.00022   0.00038   0.01611   0.02695
  53        3S         -0.00991  -0.00056  -0.00097   0.03782   0.65973
  54        3PX        -0.07124  -0.00104  -0.04765  -0.02124   0.51640
  55        3PY        -0.04113  -0.04645  -0.00104  -0.01226   0.29814
  56        3PZ         0.03771   0.00169   0.00292  -0.03474  -0.11167
  57        4S         -0.57520   0.80768   1.39894  -0.35878  -1.86936
  58        4PX        -0.59418  -0.03774  -0.17436  -0.35577  -1.30312
  59        4PY        -0.34305  -0.13078  -0.03774  -0.20540  -0.75236
  60        4PZ        -0.01183  -0.02388  -0.04136  -0.34855   0.07521
  61        5S        -11.32920  -6.05560 -10.48861  -9.77657   0.17924
  62        5PX        -2.45282  -1.78733  -2.94111  -2.16676   0.52844
  63        5PY        -1.41613  -0.87729  -1.78733  -1.25098   0.30509
  64        5PZ         0.63172  -0.63926  -1.10722  -0.03902   0.25491
  65 5   H  1S          0.08755   0.00000   0.00000  -0.15496   0.04483
  66        2S          0.28476   0.00000   0.00000  -3.64121  -0.04322
                          51        52        53        54        55
                        (A1)--V   (E)--V    (E)--V    (E)--V    (E)--V
     Eigenvalues --     0.75108   0.75109   0.75109   0.78575   0.78575
   1 1   C  1S         -0.00680  -0.00000   0.00000  -0.00000   0.00000
   2        2S          0.14464   0.00000   0.00000   0.00000   0.00000
   3        2PX         0.00000   0.00000  -0.16888   0.00000   0.21858
   4        2PY         0.00000  -0.16888   0.00000   0.21858   0.00000
   5        2PZ        -0.33967  -0.00000   0.00000   0.00000   0.00000
   6        3S         -0.81773  -0.00000   0.00000  -0.00000   0.00000
   7        3PX         0.00000   0.00000   0.99462   0.00000  -0.53100
   8        3PY        -0.00000   0.99462   0.00000  -0.53100   0.00000
   9        3PZ         0.48462   0.00000   0.00000  -0.00000   0.00000
  10        4S          1.18126   0.00000   0.00000  -0.00000   0.00000
  11        4PX         0.00000   0.00000  -0.94364   0.00000  -1.03209
  12        4PY         0.00000  -0.94364   0.00000  -1.03209   0.00000
  13        4PZ        -0.01154  -0.00000   0.00000   0.00000   0.00000
  14 2   Cl 1S         -0.00456   0.00558   0.00000   0.01947   0.00000
  15        2S         -0.00294   0.01449   0.00000  -0.03300   0.00000
  16        2PX         0.00000   0.00000  -0.21111   0.00000  -0.11083
  17        2PY        -0.01209   0.13779   0.00000  -0.16002   0.00000
  18        2PZ         0.16899  -0.01317   0.00000   0.14264   0.00000
  19        3S         -0.12995   0.19549   0.00000   0.41607   0.00000
  20        3PX         0.00000   0.00000   0.85217   0.00000   0.46442
  21        3PY         0.03889  -0.55182   0.00000   0.66732   0.00000
  22        3PZ        -0.68235   0.05590   0.00000  -0.58444   0.00000
  23        4S          0.45032  -0.96963   0.00000  -0.50548   0.00000
  24        4PX         0.00000   0.00000  -1.26803   0.00000  -0.66103
  25        4PY        -0.26822   1.20863   0.00000  -1.30446   0.00000
  26        4PZ         0.92063  -0.29704   0.00000   0.92260   0.00000
  27        5S         -0.47509   1.70305   0.00000   1.97625   0.00000
  28        5PX         0.00000   0.00000   0.59974   0.00000   0.34519
  29        5PY         0.17791  -1.00522   0.00000  -0.11151   0.00000
  30        5PZ        -0.43564   0.27090   0.00000  -0.21660   0.00000
  31 3   Cl 1S         -0.00456  -0.00279   0.00483  -0.00973   0.01686
  32        2S         -0.00294  -0.00725   0.01255   0.01650  -0.02858
  33        2PX        -0.01047  -0.15108   0.05056   0.02130  -0.14772
  34        2PY         0.00604  -0.12389  -0.15108  -0.12313   0.02130
  35        2PZ         0.16899   0.00658  -0.01140  -0.07132   0.12353
  36        3S         -0.12995  -0.09774   0.16930  -0.20803   0.36033
  37        3PX         0.03368   0.60795  -0.20082  -0.08786   0.61659
  38        3PY        -0.01944   0.50118   0.60795   0.51514  -0.08786
  39        3PZ        -0.68235  -0.02795   0.04841   0.29222  -0.50614
  40        4S          0.45032   0.48481  -0.83972   0.25274  -0.43776
  41        4PX        -0.23229  -1.07243   0.58946   0.27861  -1.14360
  42        4PY         0.13411  -0.64887  -1.07243  -0.82189   0.27861
  43        4PZ         0.92063   0.14852  -0.25724  -0.46130   0.79899
  44        5S         -0.47509  -0.85153   1.47489  -0.98813   1.71148
  45        5PX         0.15407   0.69497  -0.60398   0.19776   0.00266
  46        5PY        -0.08895   0.19850   0.69497   0.23102   0.19776
  47        5PZ        -0.43564  -0.13545   0.23461   0.10830  -0.18758
  48 4   Cl 1S         -0.00456  -0.00279  -0.00483  -0.00973  -0.01686
  49        2S         -0.00294  -0.00725  -0.01255   0.01650   0.02858
  50        2PX         0.01047   0.15108   0.05056  -0.02130  -0.14772
  51        2PY         0.00604  -0.12389   0.15108  -0.12313  -0.02130
  52        2PZ         0.16899   0.00658   0.01140  -0.07132  -0.12353
  53        3S         -0.12995  -0.09774  -0.16930  -0.20803  -0.36033
  54        3PX        -0.03368  -0.60795  -0.20082   0.08786   0.61659
  55        3PY        -0.01944   0.50118  -0.60795   0.51514   0.08786
  56        3PZ        -0.68235  -0.02795  -0.04841   0.29222   0.50614
  57        4S          0.45032   0.48481   0.83972   0.25274   0.43776
  58        4PX         0.23229   1.07243   0.58946  -0.27861  -1.14360
  59        4PY         0.13411  -0.64887   1.07243  -0.82189  -0.27861
  60        4PZ         0.92063   0.14852   0.25724  -0.46130  -0.79899
  61        5S         -0.47509  -0.85153  -1.47489  -0.98813  -1.71148
  62        5PX        -0.15407  -0.69497  -0.60398  -0.19776   0.00266
  63        5PY        -0.08895   0.19850  -0.69497   0.23102  -0.19776
  64        5PZ        -0.43564  -0.13545  -0.23461   0.10830   0.18758
  65 5   H  1S         -0.20607  -0.00000   0.00000   0.00000   0.00000
  66        2S         -0.01266  -0.00000   0.00000   0.00000   0.00000
                          56        57        58        59        60
                        (A1)--V   (E)--V    (E)--V    (A1)--V   (A2)--V
     Eigenvalues --     0.79566   0.81300   0.81300   0.87683   0.87822
   1 1   C  1S          0.02045   0.00000   0.00000  -0.02088   0.00000
   2        2S         -0.30580  -0.00000   0.00000  -0.09169   0.00000
   3        2PX         0.00000   0.00000   0.36491   0.00000  -0.00000
   4        2PY         0.00000   0.36491   0.00000   0.00000   0.00000
   5        2PZ        -0.07960   0.00000   0.00000  -0.96822   0.00000
   6        3S          0.36144   0.00000   0.00000   1.06137   0.00000
   7        3PX         0.00000   0.00000  -0.49210   0.00000   0.00000
   8        3PY        -0.00000  -0.49210   0.00000  -0.00000   0.00000
   9        3PZ         0.60805   0.00000   0.00000   2.34442   0.00000
  10        4S          7.66187   0.00000   0.00000   5.69114   0.00000
  11        4PX         0.00000   0.00000  -0.99007   0.00000  -0.00000
  12        4PY        -0.00000  -0.99007   0.00000   0.00000   0.00000
  13        4PZ        -1.19034  -0.00000   0.00000  -2.16770   0.00000
  14 2   Cl 1S         -0.04072   0.01109   0.00000   0.01567   0.00000
  15        2S          0.03376  -0.00922   0.00000  -0.00209   0.00000
  16        2PX         0.00000   0.00000  -0.06046   0.00000   0.17658
  17        2PY         0.09448  -0.10741   0.00000   0.01052   0.00000
  18        2PZ        -0.01624  -0.20313   0.00000  -0.04328   0.00000
  19        3S         -0.98839   0.27198   0.00000   0.42047   0.00000
  20        3PX         0.00000   0.00000   0.25737   0.00000  -0.76137
  21        3PY        -0.37704   0.42862   0.00000  -0.07353   0.00000
  22        3PZ         0.07509   0.85643   0.00000   0.21675   0.00000
  23        4S          1.69920  -0.38808   0.00000  -0.63777   0.00000
  24        4PX         0.00000   0.00000  -0.36071   0.00000   1.26596
  25        4PY         0.39090  -0.79925   0.00000   0.06491   0.00000
  26        4PZ        -0.23309  -1.21851   0.00000  -0.78395   0.00000
  27        5S         -3.35980   1.93424   0.00000  -1.80687   0.00000
  28        5PX         0.00000   0.00000   0.21764   0.00000  -0.94461
  29        5PY         0.75547  -0.31683   0.00000   0.49981   0.00000
  30        5PZ        -0.12631   0.93548   0.00000   0.53533   0.00000
  31 3   Cl 1S         -0.04072  -0.00555   0.00961   0.01567   0.00000
  32        2S          0.03376   0.00461  -0.00799  -0.00209  -0.00000
  33        2PX         0.08182   0.02033  -0.09567   0.00911  -0.08829
  34        2PY        -0.04724  -0.07219   0.02033  -0.00526  -0.15293
  35        2PZ        -0.01624   0.10156  -0.17591  -0.04328  -0.00000
  36        3S         -0.98839  -0.13599   0.23554   0.42047   0.00000
  37        3PX        -0.32653  -0.07415   0.38581  -0.06367   0.38068
  38        3PY         0.18852   0.30018  -0.07415   0.03676   0.65937
  39        3PZ         0.07509  -0.42821   0.74169   0.21675   0.00000
  40        4S          1.69920   0.19404  -0.33609  -0.63777  -0.00000
  41        4PX         0.33853   0.18989  -0.68962   0.05621  -0.63298
  42        4PY        -0.19545  -0.47035   0.18989  -0.03245  -1.09636
  43        4PZ        -0.23309   0.60926  -1.05526  -0.78395  -0.00000
  44        5S         -3.35980  -0.96712   1.67510  -1.80687   0.00000
  45        5PX         0.65426   0.23143  -0.18321   0.43285   0.47231
  46        5PY        -0.37773   0.08402   0.23143  -0.24990   0.81806
  47        5PZ        -0.12631  -0.46774   0.81015   0.53533   0.00000
  48 4   Cl 1S         -0.04072  -0.00555  -0.00961   0.01567  -0.00000
  49        2S          0.03376   0.00461   0.00799  -0.00209   0.00000
  50        2PX        -0.08182  -0.02033  -0.09567  -0.00911  -0.08829
  51        2PY        -0.04724  -0.07219  -0.02033  -0.00526   0.15293
  52        2PZ        -0.01624   0.10156   0.17591  -0.04328   0.00000
[...]
  26        3S          3.76353
  27        3PX         0.00000   1.31643
  28        3PY         0.00000   0.00000   1.82999
  29        3PZ         0.00000   0.00000   0.00000   2.01425
  30        4XX        -0.32051   0.00000   0.00000   0.00000   0.06151
  31        4YY        -0.31655   0.00000   0.00000   0.00000   0.01986
  32        4ZZ        -0.31491   0.00000   0.00000   0.00000   0.01982
  33        4XY         0.00000   0.00000   0.00000   0.00000   0.00000
  34        4XZ         0.00000   0.00000   0.00000   0.00000   0.00000
  35        4YZ         0.00000   0.00000   0.00000   0.00000   0.00000
  36 4   Cl 1S         -0.00000  -0.00000   0.00000   0.00000  -0.00000
  37        2S          0.00000   0.00003  -0.00000   0.00000   0.00000
  38        2PX         0.00001   0.00007  -0.00000   0.00000  -0.00001
  39        2PY         0.00000   0.00000  -0.00000   0.00000  -0.00000
  40        2PZ         0.00000   0.00000   0.00000  -0.00000   0.00000
  41        3S         -0.00008  -0.00602   0.00000   0.00000  -0.00081
  42        3PX        -0.00602  -0.01991   0.00000   0.00000   0.00493
  43        3PY        -0.00000  -0.00000   0.00042   0.00000   0.00000
  44        3PZ         0.00000   0.00000   0.00000   0.00031   0.00000
  45        4XX        -0.00081   0.00493  -0.00000   0.00000   0.00028
  46        4YY         0.00009   0.00026   0.00000   0.00000   0.00000
  47        4ZZ         0.00005   0.00031  -0.00000   0.00000   0.00001
  48        4XY         0.00000   0.00000   0.00025   0.00000  -0.00000
  49        4XZ         0.00000   0.00000   0.00000   0.00031   0.00000
  50        4YZ         0.00000   0.00000   0.00000   0.00000   0.00000
  51 5   H  1S         -0.00571  -0.00522  -0.00174  -0.01433   0.00057
                          31        32        33        34        35
  31        4YY         0.06121
  32        4ZZ         0.01992   0.05954
  33        4XY         0.00000   0.00000   0.00100
  34        4XZ         0.00000   0.00000   0.00000   0.00058
  35        4YZ         0.00000   0.00000   0.00000   0.00000   0.00045
  36 4   Cl 1S          0.00000   0.00000  -0.00000   0.00000   0.00000
  37        2S         -0.00000  -0.00000   0.00000   0.00000   0.00000
  38        2PX        -0.00000  -0.00000   0.00000   0.00000   0.00000
  39        2PY         0.00000  -0.00000  -0.00000   0.00000   0.00000
  40        2PZ         0.00000   0.00000   0.00000  -0.00000   0.00000
  41        3S          0.00009   0.00005  -0.00000   0.00000   0.00000
  42        3PX         0.00026   0.00031  -0.00000   0.00000   0.00000
  43        3PY        -0.00000   0.00000   0.00025   0.00000   0.00000
  44        3PZ         0.00000   0.00000   0.00000   0.00031  -0.00000
  45        4XX         0.00000   0.00001   0.00000   0.00000   0.00000
  46        4YY        -0.00001  -0.00000   0.00000   0.00000   0.00000
  47        4ZZ        -0.00000  -0.00000  -0.00000   0.00000   0.00000
  48        4XY        -0.00000   0.00000   0.00001   0.00000   0.00000
  49        4XZ         0.00000   0.00000   0.00000   0.00000  -0.00000
  50        4YZ         0.00000   0.00000   0.00000   0.00000   0.00000
  51 5   H  1S          0.00045   0.00114  -0.00006   0.00017   0.00006
                          36        37        38        39        40
  36 4   Cl 1S          2.27681
  37        2S         -0.27926   2.38971
  38        2PX         0.00000   0.00000   2.06092
  39        2PY         0.00000   0.00000   0.00000   2.09505
  40        2PZ         0.00000   0.00000   0.00000   0.00000   2.10718
  41        3S          0.00220  -0.13925   0.00000   0.00000   0.00000
  42        3PX         0.00000   0.00000  -0.06551   0.00000   0.00000
  43        3PY         0.00000   0.00000   0.00000  -0.09683   0.00000
  44        3PZ         0.00000   0.00000   0.00000   0.00000  -0.10797
  45        4XX         0.00000   0.00049   0.00000   0.00000   0.00000
  46        4YY         0.00000   0.00047   0.00000   0.00000   0.00000
  47        4ZZ         0.00000   0.00045   0.00000   0.00000   0.00000
  48        4XY         0.00000   0.00000   0.00000   0.00000   0.00000
  49        4XZ         0.00000   0.00000   0.00000   0.00000   0.00000
  50        4YZ         0.00000   0.00000   0.00000   0.00000   0.00000
  51 5   H  1S         -0.00000   0.00008   0.00004   0.00001   0.00009
                          41        42        43        44        45
  41        3S          3.76353
  42        3PX         0.00000   1.31643
  43        3PY         0.00000   0.00000   1.82999
  44        3PZ         0.00000   0.00000   0.00000   2.01425
  45        4XX        -0.32051   0.00000   0.00000   0.00000   0.06151
  46        4YY        -0.31655   0.00000   0.00000   0.00000   0.01986
  47        4ZZ        -0.31491   0.00000   0.00000   0.00000   0.01982
  48        4XY         0.00000   0.00000   0.00000   0.00000   0.00000
  49        4XZ         0.00000   0.00000   0.00000   0.00000   0.00000
  50        4YZ         0.00000   0.00000   0.00000   0.00000   0.00000
  51 5   H  1S         -0.00571  -0.00522  -0.00174  -0.01433   0.00057
                          46        47        48        49        50
  46        4YY         0.06121
  47        4ZZ         0.01992   0.05954
  48        4XY         0.00000   0.00000   0.00100
  49        4XZ         0.00000   0.00000   0.00000   0.00058
  50        4YZ         0.00000   0.00000   0.00000   0.00000   0.00045
  51 5   H  1S          0.00045   0.00114  -0.00006   0.00017   0.00006
                          51
  51 5   H  1S          0.47634
     MBS Gross orbital populations:
                         Total     Alpha     Beta      Spin
   1 1   C  1S          1.99348   0.99674   0.99674   0.00000
   2        2S          1.30638   0.65319   0.65319   0.00000
   3        2PX         0.81817   0.40908   0.40908   0.00000
   4        2PY         0.81817   0.40908   0.40908   0.00000
   5        2PZ         1.07496   0.53748   0.53748   0.00000
   6 2   Cl 1S          1.99978   0.99989   0.99989   0.00000
   7        2S          1.97188   0.98594   0.98594   0.00000
   8        2PX         1.99956   0.99978   0.99978   0.00000
   9        2PY         1.98942   0.99471   0.99471   0.00000
  10        2PZ         1.99879   0.99940   0.99940   0.00000
  11        3S          2.63713   1.31857   1.31857   0.00000
  12        3PX         1.97152   0.98576   0.98576   0.00000
  13        3PY         1.23233   0.61617   0.61617   0.00000
  14        3PZ         1.91504   0.95752   0.95752   0.00000
  15        4XX        -0.21773  -0.10886  -0.10886   0.00000
  16        4YY        -0.21897  -0.10949  -0.10949   0.00000
  17        4ZZ        -0.22072  -0.11036  -0.11036   0.00000
  18        4XY         0.00614   0.00307   0.00307   0.00000
  19        4XZ         0.00123   0.00062   0.00062   0.00000
  20        4YZ         0.00408   0.00204   0.00204   0.00000
  21 3   Cl 1S          1.99978   0.99989   0.99989   0.00000
  22        2S          1.97188   0.98594   0.98594   0.00000
  23        2PX         1.99195   0.99598   0.99598   0.00000
  24        2PY         1.99702   0.99851   0.99851   0.00000
  25        2PZ         1.99879   0.99940   0.99940   0.00000
  26        3S          2.63713   1.31857   1.31857   0.00000
  27        3PX         1.41713   0.70856   0.70856   0.00000
  28        3PY         1.78672   0.89336   0.89336   0.00000
  29        3PZ         1.91504   0.95752   0.95752   0.00000
  30        4XX        -0.21916  -0.10958  -0.10958   0.00000
  31        4YY        -0.21854  -0.10927  -0.10927   0.00000
  32        4ZZ        -0.22072  -0.11036  -0.11036   0.00000
  33        4XY         0.00714   0.00357   0.00357   0.00000
  34        4XZ         0.00337   0.00168   0.00168   0.00000
  35        4YZ         0.00194   0.00097   0.00097   0.00000
  36 4   Cl 1S          1.99978   0.99989   0.99989   0.00000
  37        2S          1.97188   0.98594   0.98594   0.00000
  38        2PX         1.99195   0.99598   0.99598   0.00000
  39        2PY         1.99702   0.99851   0.99851   0.00000
  40        2PZ         1.99879   0.99940   0.99940   0.00000
  41        3S          2.63713   1.31857   1.31857   0.00000
  42        3PX         1.41713   0.70856   0.70856   0.00000
  43        3PY         1.78672   0.89336   0.89336   0.00000
  44        3PZ         1.91504   0.95752   0.95752   0.00000
  45        4XX        -0.21916  -0.10958  -0.10958   0.00000
  46        4YY        -0.21854  -0.10927  -0.10927   0.00000
  47        4ZZ        -0.22072  -0.11036  -0.11036   0.00000
  48        4XY         0.00714   0.00357   0.00357   0.00000
  49        4XZ         0.00337   0.00168   0.00168   0.00000
  50        4YZ         0.00194   0.00097   0.00097   0.00000
  51 5   H  1S          0.78041   0.39020   0.39020   0.00000
          MBS Condensed to atoms (all electrons):
               1          2          3          4          5
     1  C    4.881092   0.250866   0.250866   0.250866   0.377463
     2  Cl   0.250866  16.883054  -0.019989  -0.019989  -0.024464
     3  Cl   0.250866  -0.019989  16.883054  -0.019989  -0.024464
     4  Cl   0.250866  -0.019989  -0.019989  16.883054  -0.024464
     5  H    0.377463  -0.024464  -0.024464  -0.024464   0.476338
          MBS Atomic-Atomic Spin Densities.
               1          2          3          4          5
     1  C    0.000000   0.000000   0.000000   0.000000   0.000000
     2  Cl   0.000000   0.000000   0.000000   0.000000   0.000000
     3  Cl   0.000000   0.000000   0.000000   0.000000   0.000000
     4  Cl   0.000000   0.000000   0.000000   0.000000   0.000000
     5  H    0.000000   0.000000   0.000000   0.000000   0.000000
 MBS Mulliken charges and spin densities:
               1          2
     1  C   -0.011154   0.000000
     2  Cl  -0.069479   0.000000
     3  Cl  -0.069479   0.000000
     4  Cl  -0.069479   0.000000
     5  H    0.219592   0.000000
 Sum of MBS Mulliken charges =  -0.00000   0.00000
 MBS Mulliken charges and spin densities with hydrogens summed into heavy atoms:
               1          2
     1  C    0.208438   0.000000
     2  Cl  -0.069479   0.000000
     3  Cl  -0.069479   0.000000
     4  Cl  -0.069479   0.000000
 MBS Atomic Valencies and Mayer Atomic Bond Orders:
               1          2          3          4          5
     1  C    3.821562   0.970193   0.970193   0.970193   0.910984
     2  Cl   0.970193   1.114930   0.065569   0.065569   0.013598
     3  Cl   0.970193   0.065569   1.114930   0.065569   0.013598
     4  Cl   0.970193   0.065569   0.065569   1.114930   0.013598
     5  H    0.910984   0.013598   0.013598   0.013598   0.951780
 MBS Mayer-style numbers of lone pairs (29.000 valence pairs, 24.941 lone pairs):
               1
     1  C    1.094796
     2  Cl   7.977275
     3  Cl   7.977275
     4  Cl   7.977275
     5  H   -0.085686
 BEBO parameters in MulMin, MxElBE=  0:
 ELP=  20.7255673709     EBEBO= 0.280188036419E-01 Sum=  20.7535861746    
 ELP=  20.7255673709     EBEBO= 0.280188036419E-01 EJK=  20.7535861746      0.00000000000     Sum=  20.7535861746    
 0 EA=  10.3767930873     EB=  10.3767930873     ETot=  20.7535861746    
 1 EA=  10.3767930873     EB=  10.3767930873     ETot=  20.7535861746    
 2 EA=  10.3767930873     EB=  10.3767930873     ETot=  20.7535861746    
 3 EJ=  20.7535861746     EK=  0.00000000000     ETot=  20.7535861746    
 4 EJ=  20.7535861746     EK=  0.00000000000     ETot=  20.7535861746    
 5 EA=  10.3767930873     EB=  10.3767930873     ETot=  20.7535861746    
 Orbital energies and kinetic energies (alpha):
                                 1                 2
   1         (E)--O         -104.862153        137.071473
   2         (E)--O         -104.862153        137.071473
   3         (A1)--O        -104.862133        137.074625
   4         (A1)--O         -11.451247         16.026286
   5         (E)--O          -10.602267         21.881030
   6         (E)--O          -10.602267         21.881030
   7         (A1)--O         -10.602241         21.884963
   8         (A1)--O          -8.070994         20.607176
   9         (E)--O           -8.070985         20.609470
  10         (E)--O           -8.070985         20.609470
  11         (A2)--O          -8.066243         20.636378
  12         (E)--O           -8.066238         20.637627
  13         (E)--O           -8.066238         20.637627
  14         (E)--O           -8.066179         20.637342
  15         (E)--O           -8.066179         20.637342
  16         (A1)--O          -8.066174         20.638299
  17         (A1)--O          -1.269110          2.203512
  18         (E)--O           -1.132172          2.932057
  19         (E)--O           -1.132172          2.932057
  20         (A1)--O          -0.891691          2.196707
  21         (A1)--O          -0.696783          1.643849
  22         (E)--O           -0.631308          2.020405
  23         (E)--O           -0.631308          2.020405
  24         (E)--O           -0.510527          2.268226
  25         (E)--O           -0.510527          2.268226
  26         (E)--O           -0.477408          2.439321
  27         (E)--O           -0.477408          2.439321
  28         (A1)--O          -0.475647          2.228752
  29         (A2)--O          -0.465307          2.540371
  30         (A1)--V           0.076056          0.697731
  31         (A1)--V           0.077760          0.760080
  32         (E)--V            0.092767          0.391749
  33         (E)--V            0.092767          0.391749
  34         (A1)--V           0.126568          0.666460
  35         (E)--V            0.140885          0.520523
  36         (E)--V            0.140885          0.520523
  37         (E)--V            0.149097          0.273471
  38         (E)--V            0.149097          0.273471
  39         (A1)--V           0.163957          0.748484
  40         (E)--V            0.181898          0.543316
  41         (E)--V            0.181898          0.543316
  42         (A2)--V           0.193266          0.273133
  43         (A1)--V           0.204045          0.784740
  44         (E)--V            0.213652          1.438223
  45         (E)--V            0.213652          1.438223
  46         (A1)--V           0.235661          0.550133
  47         (E)--V            0.251429          0.431884
  48         (E)--V            0.251429          0.431884
  49         (A1)--V           0.364263          0.947644
  50         (A1)--V           0.720468          2.845710
  51         (A1)--V           0.751078          2.935588
  52         (E)--V            0.751088          3.004483
  53         (E)--V            0.751088          3.004483
  54         (E)--V            0.785746          3.014839
  55         (E)--V            0.785746          3.014839
  56         (A1)--V           0.795659          2.865848
  57         (E)--V            0.812996          2.936884
  58         (E)--V            0.812996          2.936884
  59         (A1)--V           0.876827          2.237583
  60         (A2)--V           0.878216          2.965672
  61         (E)--V            0.908291          2.492362
  62         (E)--V            0.908291          2.492362
  63         (E)--V            1.003233          3.153855
  64         (E)--V            1.003233          3.153855
  65         (A1)--V           1.279891          2.778491
  66         (A1)--V           1.451464          2.663822
 Total kinetic energy from orbitals= 1.417349635804D+03
                          Isotropic Fermi Contact Couplings
        Atom                 a.u.       MegaHertz       Gauss      10(-4) cm-1
     1  C(13)             -0.00000      -0.00000      -0.00000      -0.00000
     2  Cl(35)             0.00000       0.00000       0.00000       0.00000
     3  Cl(35)            -0.00000      -0.00000      -0.00000      -0.00000
     4  Cl(35)            -0.00000      -0.00000      -0.00000      -0.00000
     5  H(1)              -0.00000      -0.00000      -0.00000      -0.00000
 --------------------------------------------------------
       Center         ----  Spin Dipole Couplings  ----
                      3XX-RR        3YY-RR        3ZZ-RR
 --------------------------------------------------------
     1   Atom        0.000000      0.000000      0.000000
     2   Atom        0.000000      0.000000      0.000000
     3   Atom        0.000000      0.000000      0.000000
     4   Atom        0.000000      0.000000      0.000000
     5   Atom        0.000000      0.000000      0.000000
 --------------------------------------------------------
                        XY            XZ            YZ
 --------------------------------------------------------
     1   Atom        0.000000      0.000000      0.000000
     2   Atom        0.000000      0.000000      0.000000
     3   Atom        0.000000      0.000000      0.000000
     4   Atom        0.000000      0.000000      0.000000
     5   Atom        0.000000      0.000000      0.000000
 --------------------------------------------------------


 ---------------------------------------------------------------------------------
              Anisotropic Spin Dipole Couplings in Principal Axis System
 ---------------------------------------------------------------------------------

       Atom             a.u.   MegaHertz   Gauss  10(-4) cm-1        Axes

              Baa     0.0000     0.000     0.000     0.000  1.0000  0.0000  0.0000
     1 C(13)  Bbb     0.0000     0.000     0.000     0.000 -0.0000  1.0000  0.0000
              Bcc     0.0000     0.000     0.000     0.000  0.0000  0.0000  1.0000
 
              Baa     0.0000     0.000     0.000     0.000  1.0000  0.0000  0.0000
     2 Cl(35) Bbb     0.0000     0.000     0.000     0.000 -0.0000  1.0000  0.0000
              Bcc     0.0000     0.000     0.000     0.000  0.0000  0.0000  1.0000
 
              Baa     0.0000     0.000     0.000     0.000  1.0000  0.0000  0.0000
     3 Cl(35) Bbb     0.0000     0.000     0.000     0.000 -0.0000  1.0000  0.0000
              Bcc     0.0000     0.000     0.000     0.000  0.0000  0.0000  1.0000
 
              Baa     0.0000     0.000     0.000     0.000  1.0000  0.0000  0.0000
     4 Cl(35) Bbb     0.0000     0.000     0.000     0.000 -0.0000  1.0000  0.0000
              Bcc     0.0000     0.000     0.000     0.000  0.0000  0.0000  1.0000
 
              Baa     0.0000     0.000     0.000     0.000  1.0000  0.0000  0.0000
     5 H(1)   Bbb     0.0000     0.000     0.000     0.000 -0.0000  1.0000  0.0000
              Bcc     0.0000     0.000     0.000     0.000  0.0000  0.0000  1.0000
 

 ---------------------------------------------------------------------------------

 No NMR shielding tensors so no spin-rotation constants.
 Leave Link  601 at Mon Jul 15 12:25:18 2024, MaxMem=   104857600 cpu:               0.1 elap:               0.1
 (Enter /ihome/crc/install/gaussian/c01/avx2/tar/g16/l9999.exe)

 Test job not archived.
 1\1\GINC-SMP-N214\SP\ROHF\6-31+G\C1H1Cl3\BLZ11\15-Jul-2024\0\\#P SP RO
 HF/6-31+G Pop=(Full) scf=tight IOp(6/27=122)\\CHCl3\\0,1\C,0,0.,0.,0.4
 54744\Cl,0,0.,1.694293,-0.083588\Cl,0,1.467301,-0.847147,-0.083588\Cl,
 0,-1.467301,-0.847147,-0.083588\H,0,0.,0.,1.534524\\Version=ES64L-G16R
 evC.01\State=1-A1\HF=-1416.7791595\RMSD=2.604e-09\Dipole=0.,0.,0.64723
 87\Quadrupole=-1.0299145,-1.0299145,2.0598291,0.,0.,0.\PG=C03V [C3(C1H
 1),3SGV(Cl1)]\\@


 EDUCATION IS NOT TRAINING BUT RATHER THE PROCESS THAT EQUIPS YOU TO
 ENTERTAIN YOURSELF, A FRIEND, OR AN IDEA.  -- WALLACE STERLING
 Job cpu time:       0 days  0 hours  0 minutes  0.6 seconds.
 Elapsed time:       0 days  0 hours  0 minutes  0.5 seconds.
 File lengths (MBytes):  RWF=      6 Int=      0 D2E=      0 Chk=      1 Scr=      1
 Normal termination of Gaussian 16 at Mon Jul 15 12:25:18 2024.
/var/spool/slurmd/job16209040/slurm_script: line 22: crc-job-stats.py: command not found
