 Entering Gaussian System, Link 0=g16
 Initial command:
 /software/rhel9/manual/install/gaussian/c01/avx2/tar/g16/l1.exe "/scratch/slurm-21801759/Gau-1470459.inp" -scrdir="/scratch/slurm-21801759/"
 Entering Link 1 = /software/rhel9/manual/install/gaussian/c01/avx2/tar/g16/l1.exe PID=   1470461.
  
 Copyright (c) 1988-2019, Gaussian, Inc.  All Rights Reserved.
  
 This is part of the Gaussian(R) 16 program.  It is based on
 the Gaussian(R) 09 system (copyright 2009, Gaussian, Inc.),
 the Gaussian(R) 03 system (copyright 2003, Gaussian, Inc.),
 the Gaussian(R) 98 system (copyright 1998, Gaussian, Inc.),
 the Gaussian(R) 94 system (copyright 1995, Gaussian, Inc.),
 the Gaussian 92(TM) system (copyright 1992, Gaussian, Inc.),
 the Gaussian 90(TM) system (copyright 1990, Gaussian, Inc.),
 the Gaussian 88(TM) system (copyright 1988, Gaussian, Inc.),
 the Gaussian 86(TM) system (copyright 1986, Carnegie Mellon
 University), and the Gaussian 82(TM) system (copyright 1983,
 Carnegie Mellon University). Gaussian is a federally registered
 trademark of Gaussian, Inc.
  
 This software contains proprietary and confidential information,
 including trade secrets, belonging to Gaussian, Inc.
  
 This software is provided under written license and may be
 used, copied, transmitted, or stored only in accord with that
 written license.
  
 The following legend is applicable only to US Government
 contracts under FAR:
  
                    RESTRICTED RIGHTS LEGEND
  
 Use, reproduction and disclosure by the US Government is
 subject to restrictions as set forth in subparagraphs (a)
 and (c) of the Commercial Computer Software - Restricted
 Rights clause in FAR 52.227-19.
  
 Gaussian, Inc.
 340 Quinnipiac St., Bldg. 40, Wallingford CT 06492
  
  
 ---------------------------------------------------------------
 Warning -- This program may not be used in any manner that
 competes with the business of Gaussian, Inc. or will provide
 assistance to any competitor of Gaussian, Inc.  The licensee
 of this program is prohibited from giving any competitor of
 Gaussian, Inc. access to this program.  By using this program,
 the user acknowledges that Gaussian, Inc. is engaged in the
 business of creating and licensing software in the field of
 computational chemistry and represents and warrants to the
 licensee that it is not a competitor of Gaussian, Inc. and that
 it will not use this program in any manner prohibited above.
 ---------------------------------------------------------------
  

 Cite this work as:
 Gaussian 16, Revision C.01,
 M. J. Frisch, G. W. Trucks, H. B. Schlegel, G. E. Scuseria, 
 M. A. Robb, J. R. Cheeseman, G. Scalmani, V. Barone, 
 G. A. Petersson, H. Nakatsuji, X. Li, M. Caricato, A. V. Marenich, 
 J. Bloino, B. G. Janesko, R. Gomperts, B. Mennucci, H. P. Hratchian, 
 J. V. Ortiz, A. F. Izmaylov, J. L. Sonnenberg, D. Williams-Young, 
 F. Ding, F. Lipparini, F. Egidi, J. Goings, B. Peng, A. Petrone, 
 T. Henderson, D. Ranasinghe, V. G. Zakrzewski, J. Gao, N. Rega, 
 G. Zheng, W. Liang, M. Hada, M. Ehara, K. Toyota, R. Fukuda, 
 J. Hasegawa, M. Ishida, T. Nakajima, Y. Honda, O. Kitao, H. Nakai, 
 T. Vreven, K. Throssell, J. A. Montgomery, Jr., J. E. Peralta, 
 F. Ogliaro, M. J. Bearpark, J. J. Heyd, E. N. Brothers, K. N. Kudin, 
 V. N. Staroverov, T. A. Keith, R. Kobayashi, J. Normand, 
 K. Raghavachari, A. P. Rendell, J. C. Burant, S. S. Iyengar, 
 J. Tomasi, M. Cossi, J. M. Millam, M. Klene, C. Adamo, R. Cammi, 
 J. W. Ochterski, R. L. Martin, K. Morokuma, O. Farkas, 
 J. B. Foresman, and D. J. Fox, Gaussian, Inc., Wallingford CT, 2019.
 
 ******************************************
 Gaussian 16:  ES64L-G16RevC.01  3-Jul-2019
                19-Dec-2025 
 ******************************************
 -------------------------------------------------------------
 # SP ROHF/Def2TZVPP scf=tight Pop=(Full) IOp(6/27=122,6/12=3)
 -------------------------------------------------------------
 1/38=1,172=1/1;
 2/12=2,17=6,18=5,40=1/2;
 3/5=44,7=202,11=2,25=1,30=1,116=101/1,2,3;
 4//1;
 5/5=2,32=2,38=5/2;
 6/7=3,12=3,27=122,28=1/1;
 99/5=1,9=1/99;
 ----
 SnH4
 ----
 Symbolic Z-matrix:
 Charge =  0 Multiplicity = 1
 Sn                    0.        0.        0. 
 H                     0.98621   0.98621   0.98621 
 H                     0.98621  -0.98621  -0.98621 
 H                    -0.98621   0.98621  -0.98621 
 H                    -0.98621  -0.98621   0.98621 
 
                          Input orientation:                          
 ---------------------------------------------------------------------
 Center     Atomic      Atomic             Coordinates (Angstroms)
 Number     Number       Type             X           Y           Z
 ---------------------------------------------------------------------
      1         50           0        0.000000    0.000000    0.000000
      2          1           0        0.986206    0.986206    0.986206
      3          1           0        0.986206   -0.986206   -0.986206
      4          1           0       -0.986206    0.986206   -0.986206
      5          1           0       -0.986206   -0.986206    0.986206
 ---------------------------------------------------------------------
                    Distance matrix (angstroms):
                    1          2          3          4          5
     1  Sn   0.000000
     2  H    1.708159   0.000000
     3  H    1.708159   2.789412   0.000000
     4  H    1.708159   2.789412   2.789412   0.000000
     5  H    1.708159   2.789412   2.789412   2.789412   0.000000
 Stoichiometry    H4Sn
 Framework group  TD[O(Sn),4C3(H)]
 Deg. of freedom     1
 Full point group                 TD      NOp  24
 Largest Abelian subgroup         D2      NOp   4
 Largest concise Abelian subgroup D2      NOp   4
                         Standard orientation:                         
 ---------------------------------------------------------------------
 Center     Atomic      Atomic             Coordinates (Angstroms)
 Number     Number       Type             X           Y           Z
 ---------------------------------------------------------------------
      1         50           0        0.000000    0.000000    0.000000
      2          1           0        0.986206    0.986206    0.986206
      3          1           0       -0.986206   -0.986206    0.986206
      4          1           0        0.986206   -0.986206   -0.986206
      5          1           0       -0.986206    0.986206   -0.986206
 ---------------------------------------------------------------------
 Rotational constants (GHZ):          64.4476059          64.4476059          64.4476059
 Standard basis: def2TZVPP (5D, 7F)
 There are    32 symmetry adapted cartesian basis functions of A   symmetry.
 There are    29 symmetry adapted cartesian basis functions of B1  symmetry.
 There are    29 symmetry adapted cartesian basis functions of B2  symmetry.
 There are    29 symmetry adapted cartesian basis functions of B3  symmetry.
 There are    28 symmetry adapted basis functions of A   symmetry.
 There are    26 symmetry adapted basis functions of B1  symmetry.
 There are    26 symmetry adapted basis functions of B2  symmetry.
 There are    26 symmetry adapted basis functions of B3  symmetry.
   106 basis functions,   173 primitive gaussians,   119 cartesian basis functions
    13 alpha electrons       13 beta electrons
       nuclear repulsion energy        28.4001188780 Hartrees.
 NAtoms=    5 NActive=    5 NUniq=    2 SFac= 4.00D+00 NAtFMM=   60 NAOKFM=F Big=F
 Integral buffers will be    131072 words long.
 Raffenetti 2 integral format.
 Two-electron integral symmetry is turned on.
 One-electron integrals computed using PRISM.
  24 Symmetry operations used in ECPInt.
 ECPInt:  NShTT=     820 NPrTT=    1931 LenC2=     821 LenP2D=    1855.
 LDataN:  DoStor=T MaxTD1= 7 Len=  274
 NBasis=   106 RedAO= T EigKep=  3.58D-03  NBF=    28    26    26    26
 NBsUse=   106 1.00D-06 EigRej= -1.00D+00 NBFU=    28    26    26    26
 ExpMin= 4.62D-02 ExpMax= 1.58D+03 ExpMxC= 3.41D+01 IAcc=3 IRadAn=         5 AccDes= 0.00D+00
 Harris functional with IExCor=  205 and IRadAn=       5 diagonalized for initial guess.
 HarFok:  IExCor=  205 AccDes= 0.00D+00 IRadAn=         5 IDoV= 1 UseB2=F ITyADJ=14
 ICtDFT=  3500011 ScaDFX=  1.000000  1.000000  1.000000  1.000000
 Defaulting to unpruned grid for atomic number  50.
 FoFCou: FMM=F IPFlag=           0 FMFlag=      100000 FMFlg1=           0
         NFxFlg=           0 DoJE=T BraDBF=F KetDBF=T FulRan=T
         wScrn=  0.000000 ICntrl=       500 IOpCl=  0 I1Cent=   200000004 NGrid=           0
         NMat0=    1 NMatS0=      1 NMatT0=    0 NMatD0=    1 NMtDS0=    0 NMtDT0=    0
 Petite list used in FoFCou.
 Initial guess orbital symmetries:
       Occupied  (A1) (T2) (T2) (T2) (T2) (T2) (T2) (E) (E) (A1)
                 (T2) (T2) (T2)
       Virtual   (A1) (T2) (T2) (T2) (T2) (T2) (T2) (E) (E) (A1)
                 (T2) (T2) (T2) (A1) (T2) (T2) (T2) (T1) (T1) (T1)
                 (T2) (T2) (T2) (T2) (T2) (T2) (E) (E) (A1) (T2)
                 (T2) (T2) (T1) (T1) (T1) (T2) (T2) (T2) (E) (E)
                 (A1) (T2) (T2) (T2) (A1) (T2) (T2) (T2) (T1) (T1)
                 (T1) (A1) (T2) (T2) (T2) (T1) (T1) (T1) (E) (E)
                 (T2) (T2) (T2) (E) (E) (T2) (T2) (T2) (A1) (T1)
                 (T1) (T1) (T2) (T2) (T2) (T1) (T1) (T1) (A1) (E)
                 (E) (T2) (T2) (T2) (T2) (T2) (T2) (A1) (A1) (T2)
                 (T2) (T2) (A1)
 The electronic state of the initial guess is 1-A1.
 Keep R1 and R2 ints in memory in symmetry-blocked form, NReq=20123108.
 Requested convergence on RMS density matrix=1.00D-08 within 128 cycles.
 Requested convergence on MAX density matrix=1.00D-06.
 Requested convergence on             energy=1.00D-06.
 No special actions if energy rises.
 SCF Done:  E(ROHF) =  -215.644333542     A.U. after    9 cycles
            NFock=  9  Conv=0.15D-08     -V/T= 3.5385
 <Sx>= 0.0000 <Sy>= 0.0000 <Sz>= 0.0000 <S**2>= 0.0000 S= 0.0000
 <L.S>=  0.00000000000    
 Annihilation of the first spin contaminant:
 S**2 before annihilation     0.0000,   after     0.0000

 **********************************************************************

            Population analysis using the SCF Density.

 **********************************************************************

 Orbital symmetries:
       Occupied  (A1) (T2) (T2) (T2) (T2) (T2) (T2) (E) (E) (A1)
                 (T2) (T2) (T2)
       Virtual   (T2) (T2) (T2) (A1) (T2) (T2) (T2) (E) (E) (A1)
                 (T2) (T2) (T2) (A1) (T2) (T2) (T2) (T1) (T1) (T1)
                 (T2) (T2) (T2) (T2) (T2) (T2) (E) (E) (A1) (T2)
                 (T2) (T2) (T1) (T1) (T1) (T2) (T2) (T2) (E) (E)
                 (A1) (T2) (T2) (T2) (A1) (T2) (T2) (T2) (T1) (T1)
                 (T1) (A1) (T2) (T2) (T2) (T1) (T1) (T1) (E) (E)
                 (T2) (T2) (T2) (T2) (T2) (T2) (E) (E) (T1) (T1)
                 (T1) (A1) (T2) (T2) (T2) (T1) (T1) (T1) (E) (E)
                 (T2) (T2) (T2) (A1) (T2) (T2) (T2) (A1) (A1) (T2)
                 (T2) (T2) (A1)
 The electronic state is 1-A1.
 Alpha  occ. eigenvalues --   -5.85912  -4.04825  -4.04825  -4.04825  -1.31758
 Alpha  occ. eigenvalues --   -1.31758  -1.31758  -1.31104  -1.31104  -0.67911
 Alpha  occ. eigenvalues --   -0.44711  -0.44711  -0.44711
 Alpha virt. eigenvalues --    0.10552   0.10552   0.10552   0.14749   0.19737
 Alpha virt. eigenvalues --    0.19737   0.19737   0.27667   0.27667   0.33414
 Alpha virt. eigenvalues --    0.39017   0.39017   0.39017   0.50522   0.58179
 Alpha virt. eigenvalues --    0.58179   0.58179   0.72422   0.72422   0.72422
 Alpha virt. eigenvalues --    0.82562   0.82562   0.82562   0.95997   0.95997
 Alpha virt. eigenvalues --    0.95997   1.10619   1.10619   1.14927   1.21021
 Alpha virt. eigenvalues --    1.21021   1.21021   1.28825   1.28825   1.28825
 Alpha virt. eigenvalues --    1.29285   1.29285   1.29285   1.40523   1.40523
 Alpha virt. eigenvalues --    1.50563   1.92706   1.92706   1.92706   2.47914
 Alpha virt. eigenvalues --    2.64789   2.64789   2.64789   2.67344   2.67344
 Alpha virt. eigenvalues --    2.67344   2.80460   2.98965   2.98965   2.98965
 Alpha virt. eigenvalues --    3.46390   3.46390   3.46390   3.46443   3.46443
 Alpha virt. eigenvalues --    3.57696   3.57696   3.57696   3.72703   3.72703
 Alpha virt. eigenvalues --    3.72703   3.72843   3.72843   3.81234   3.81234
 Alpha virt. eigenvalues --    3.81234   3.82641   4.08365   4.08365   4.08365
 Alpha virt. eigenvalues --    4.11646   4.11646   4.11646   4.28514   4.28514
 Alpha virt. eigenvalues --    4.33441   4.33441   4.33441   4.33692   4.85482
 Alpha virt. eigenvalues --    4.85482   4.85482   5.00171  37.36109  37.76128
 Alpha virt. eigenvalues --   37.76128  37.76128 114.21874
     Molecular Orbital Coefficients:
                           1         2         3         4         5
                        (A1)--O   (T2)--O   (T2)--O   (T2)--O   (T2)--O
     Eigenvalues --    -5.85912  -4.04825  -4.04825  -4.04825  -1.31758
   1 1   Sn 1S         -0.94596   0.00000   0.00000   0.00000   0.00000
   2        2S          1.46998   0.00000   0.00000   0.00000   0.00000
   3        3S         -0.83521   0.00000   0.00000   0.00000   0.00000
   4        4S         -0.51711   0.00000   0.00000   0.00000   0.00000
   5        5S         -0.01719   0.00000   0.00000   0.00000   0.00000
   6        6S          0.00522   0.00000   0.00000   0.00000   0.00000
   7        7PX         0.00000   0.00000   0.18049   0.00000   0.00000
   8        7PY         0.00000   0.18049   0.00000   0.00000   0.00000
   9        7PZ         0.00000   0.00000   0.00000   0.18049  -0.00052
  10        8PX         0.00000   0.00000   1.07079   0.00000   0.00000
  11        8PY         0.00000   1.07079   0.00000   0.00000   0.00000
  12        8PZ         0.00000   0.00000   0.00000   1.07079  -0.00263
  13        9PX         0.00000   0.00000   0.01405   0.00000   0.00000
  14        9PY         0.00000   0.01405   0.00000   0.00000   0.00000
  15        9PZ         0.00000   0.00000   0.00000   0.01405  -0.00472
  16       10PX         0.00000   0.00000  -0.00082   0.00000   0.00000
  17       10PY         0.00000  -0.00082   0.00000   0.00000   0.00000
  18       10PZ         0.00000   0.00000   0.00000  -0.00082   0.00098
  19       11PX         0.00000   0.00000   0.00018   0.00000   0.00000
  20       11PY         0.00000   0.00018   0.00000   0.00000   0.00000
  21       11PZ         0.00000   0.00000   0.00000   0.00018   0.00100
  22       12D 0        0.00000   0.00000   0.00000   0.00000   0.00000
  23       12D+1        0.00000   0.00131   0.00000   0.00000   0.00000
  24       12D-1        0.00000   0.00000   0.00131   0.00000   0.00000
  25       12D+2       -0.00000   0.00000   0.00000   0.00000   0.00000
  26       12D-2        0.00000   0.00000   0.00000   0.00131   0.89772
  27       13D 0        0.00000   0.00000   0.00000   0.00000   0.00000
  28       13D+1        0.00000  -0.00173   0.00000   0.00000   0.00000
  29       13D-1        0.00000   0.00000  -0.00173   0.00000   0.00000
  30       13D+2        0.00000   0.00000   0.00000   0.00000   0.00000
  31       13D-2        0.00000   0.00000   0.00000  -0.00173   0.16290
  32       14D 0       -0.00000   0.00000   0.00000   0.00000   0.00000
  33       14D+1        0.00000  -0.00031   0.00000   0.00000   0.00000
  34       14D-1        0.00000   0.00000  -0.00031   0.00000   0.00000
  35       14D+2       -0.00000   0.00000   0.00000   0.00000   0.00000
  36       14D-2        0.00000   0.00000   0.00000  -0.00031   0.01255
  37       15F 0        0.00000   0.00000   0.00000   0.00032  -0.00030
  38       15F+1        0.00000   0.00000  -0.00019   0.00000   0.00000
  39       15F-1        0.00000  -0.00019   0.00000   0.00000   0.00000
  40       15F+2        0.00000   0.00000   0.00000  -0.00000  -0.00000
  41       15F-2       -0.00047   0.00000   0.00000   0.00000   0.00000
  42       15F+3        0.00000   0.00000   0.00025   0.00000   0.00000
  43       15F-3        0.00000  -0.00025   0.00000   0.00000   0.00000
  44       16F 0        0.00000   0.00000   0.00000   0.00002   0.00078
  45       16F+1        0.00000   0.00000  -0.00001   0.00000   0.00000
  46       16F-1        0.00000  -0.00001   0.00000   0.00000   0.00000
  47       16F+2        0.00000   0.00000   0.00000   0.00000   0.00000
  48       16F-2        0.00062   0.00000   0.00000   0.00000   0.00000
  49       16F+3        0.00000   0.00000   0.00001   0.00000   0.00000
  50       16F-3        0.00000  -0.00001   0.00000   0.00000   0.00000
  51 2   H  1S         -0.00019   0.00055   0.00055   0.00055   0.00896
  52        2S          0.00051   0.00110   0.00110   0.00110   0.01327
  53        3S         -0.00089   0.00012   0.00012   0.00012   0.00002
  54        4PX         0.00007  -0.00018  -0.00009  -0.00018  -0.00070
  55        4PY         0.00007  -0.00009  -0.00018  -0.00018  -0.00070
  56        4PZ         0.00007  -0.00018  -0.00018  -0.00009  -0.00119
  57        5PX        -0.00008  -0.00034  -0.00023  -0.00034  -0.00127
  58        5PY        -0.00008  -0.00023  -0.00034  -0.00034  -0.00127
  59        5PZ        -0.00008  -0.00034  -0.00034  -0.00023  -0.00257
  60        6D 0       -0.00000   0.00002   0.00002  -0.00003   0.00026
  61        6D+1       -0.00011   0.00012   0.00009   0.00009   0.00054
  62        6D-1       -0.00011   0.00009   0.00012   0.00009   0.00054
  63        6D+2        0.00000   0.00003  -0.00003  -0.00000   0.00000
  64        6D-2       -0.00011   0.00009   0.00009   0.00012   0.00046
  65 3   H  1S         -0.00019  -0.00055  -0.00055   0.00055   0.00896
  66        2S          0.00051  -0.00110  -0.00110   0.00110   0.01327
  67        3S         -0.00089  -0.00012  -0.00012   0.00012   0.00002
  68        4PX        -0.00007  -0.00018  -0.00009   0.00018   0.00070
  69        4PY        -0.00007  -0.00009  -0.00018   0.00018   0.00070
  70        4PZ         0.00007   0.00018   0.00018  -0.00009  -0.00119
  71        5PX         0.00008  -0.00034  -0.00023   0.00034   0.00127
  72        5PY         0.00008  -0.00023  -0.00034   0.00034   0.00127
  73        5PZ        -0.00008   0.00034   0.00034  -0.00023  -0.00257
  74        6D 0       -0.00000  -0.00002  -0.00002  -0.00003   0.00026
  75        6D+1        0.00011   0.00012   0.00009  -0.00009  -0.00054
  76        6D-1        0.00011   0.00009   0.00012  -0.00009  -0.00054
  77        6D+2        0.00000  -0.00003   0.00003  -0.00000   0.00000
  78        6D-2       -0.00011  -0.00009  -0.00009   0.00012   0.00046
  79 4   H  1S         -0.00019  -0.00055   0.00055  -0.00055  -0.00896
  80        2S          0.00051  -0.00110   0.00110  -0.00110  -0.01327
  81        3S         -0.00089  -0.00012   0.00012  -0.00012  -0.00002
  82        4PX         0.00007   0.00018  -0.00009   0.00018   0.00070
  83        4PY        -0.00007  -0.00009   0.00018  -0.00018  -0.00070
  84        4PZ        -0.00007  -0.00018   0.00018  -0.00009  -0.00119
  85        5PX        -0.00008   0.00034  -0.00023   0.00034   0.00127
  86        5PY         0.00008  -0.00023   0.00034  -0.00034  -0.00127
  87        5PZ         0.00008  -0.00034   0.00034  -0.00023  -0.00257
  88        6D 0       -0.00000  -0.00002   0.00002   0.00003  -0.00026
  89        6D+1        0.00011   0.00012  -0.00009   0.00009   0.00054
  90        6D-1       -0.00011  -0.00009   0.00012  -0.00009  -0.00054
  91        6D+2        0.00000  -0.00003  -0.00003   0.00000  -0.00000
  92        6D-2        0.00011   0.00009  -0.00009   0.00012   0.00046
  93 5   H  1S         -0.00019   0.00055  -0.00055  -0.00055  -0.00896
  94        2S          0.00051   0.00110  -0.00110  -0.00110  -0.01327
  95        3S         -0.00089   0.00012  -0.00012  -0.00012  -0.00002
  96        4PX        -0.00007   0.00018  -0.00009  -0.00018  -0.00070
  97        4PY         0.00007  -0.00009   0.00018   0.00018   0.00070
  98        4PZ        -0.00007   0.00018  -0.00018  -0.00009  -0.00119
  99        5PX         0.00008   0.00034  -0.00023  -0.00034  -0.00127
 100        5PY        -0.00008  -0.00023   0.00034   0.00034   0.00127
 101        5PZ         0.00008   0.00034  -0.00034  -0.00023  -0.00257
 102        6D 0       -0.00000   0.00002  -0.00002   0.00003  -0.00026
 103        6D+1       -0.00011   0.00012  -0.00009  -0.00009  -0.00054
 104        6D-1        0.00011  -0.00009   0.00012   0.00009   0.00054
 105        6D+2        0.00000   0.00003   0.00003   0.00000  -0.00000
 106        6D-2        0.00011  -0.00009   0.00009   0.00012   0.00046
                           6         7         8         9        10
                        (T2)--O   (T2)--O   (E)--O    (E)--O    (A1)--O
     Eigenvalues --    -1.31758  -1.31758  -1.31104  -1.31104  -0.67911
   1 1   Sn 1S          0.00000   0.00000   0.00000   0.00000  -0.28527
   2        2S          0.00000   0.00000  -0.00000  -0.00000   0.45159
   3        3S          0.00000   0.00000   0.00000  -0.00000  -0.34707
   4        4S          0.00000   0.00000  -0.00000  -0.00000  -0.27970
   5        5S          0.00000   0.00000   0.00000  -0.00000   0.54892
   6        6S          0.00000   0.00000  -0.00000   0.00000   0.21734
   7        7PX        -0.00052   0.00000   0.00000   0.00000   0.00000
   8        7PY         0.00000  -0.00052   0.00000   0.00000   0.00000
   9        7PZ         0.00000   0.00000   0.00000   0.00000   0.00000
  10        8PX        -0.00263   0.00000   0.00000   0.00000   0.00000
  11        8PY         0.00000  -0.00263   0.00000   0.00000   0.00000
  12        8PZ         0.00000   0.00000   0.00000   0.00000   0.00000
  13        9PX        -0.00472   0.00000   0.00000   0.00000   0.00000
  14        9PY         0.00000  -0.00472   0.00000   0.00000   0.00000
  15        9PZ         0.00000   0.00000   0.00000   0.00000   0.00000
  16       10PX         0.00098   0.00000   0.00000   0.00000   0.00000
  17       10PY         0.00000   0.00098   0.00000   0.00000   0.00000
  18       10PZ         0.00000   0.00000   0.00000   0.00000   0.00000
  19       11PX         0.00100   0.00000   0.00000   0.00000   0.00000
  20       11PY         0.00000   0.00100   0.00000   0.00000   0.00000
  21       11PZ         0.00000   0.00000   0.00000   0.00000   0.00000
  22       12D 0        0.00000   0.00000   0.31908   0.84588   0.00000
  23       12D+1        0.00000   0.89772   0.00000   0.00000   0.00000
  24       12D-1        0.89772   0.00000   0.00000   0.00000   0.00000
  25       12D+2        0.00000   0.00000   0.84588  -0.31908   0.00000
  26       12D-2        0.00000   0.00000   0.00000   0.00000   0.00000
  27       13D 0        0.00000   0.00000   0.05755   0.15257  -0.00000
  28       13D+1        0.00000   0.16290   0.00000   0.00000   0.00000
  29       13D-1        0.16290   0.00000   0.00000   0.00000   0.00000
  30       13D+2        0.00000   0.00000   0.15257  -0.05755   0.00000
  31       13D-2        0.00000   0.00000   0.00000   0.00000   0.00000
  32       14D 0        0.00000   0.00000   0.00427   0.01132   0.00000
  33       14D+1        0.00000   0.01255   0.00000   0.00000   0.00000
  34       14D-1        0.01255   0.00000   0.00000   0.00000   0.00000
  35       14D+2        0.00000   0.00000   0.01132  -0.00427  -0.00000
  36       14D-2        0.00000   0.00000   0.00000   0.00000   0.00000
  37       15F 0        0.00000   0.00000   0.00000   0.00000   0.00000
  38       15F+1        0.00018   0.00000   0.00000   0.00000   0.00000
  39       15F-1        0.00000   0.00018   0.00000   0.00000   0.00000
  40       15F+2        0.00000   0.00000   0.00000   0.00000   0.00000
  41       15F-2        0.00000   0.00000   0.00000   0.00000   0.01276
  42       15F+3       -0.00024   0.00000   0.00000   0.00000   0.00000
  43       15F-3        0.00000   0.00024   0.00000   0.00000   0.00000
  44       16F 0        0.00000   0.00000   0.00000   0.00000   0.00000
  45       16F+1       -0.00048   0.00000   0.00000   0.00000   0.00000
  46       16F-1        0.00000  -0.00048   0.00000   0.00000   0.00000
  47       16F+2        0.00000   0.00000   0.00000   0.00000   0.00000
  48       16F-2        0.00000   0.00000  -0.00000  -0.00000   0.00815
  49       16F+3        0.00062   0.00000   0.00000   0.00000   0.00000
  50       16F-3        0.00000  -0.00062   0.00000   0.00000   0.00000
  51 2   H  1S          0.00896   0.00896   0.00000   0.00000   0.06801
  52        2S          0.01327   0.01327  -0.00000  -0.00000   0.12873
  53        3S          0.00002   0.00002   0.00000  -0.00000   0.05159
  54        4PX        -0.00119  -0.00070   0.00035  -0.00043  -0.00254
  55        4PY        -0.00070  -0.00119  -0.00054  -0.00009  -0.00254
  56        4PZ        -0.00070  -0.00070   0.00019   0.00052  -0.00254
  57        5PX        -0.00257  -0.00127   0.00094  -0.00114  -0.00856
  58        5PY        -0.00127  -0.00257  -0.00146  -0.00024  -0.00856
  59        5PZ        -0.00127  -0.00127   0.00052   0.00138  -0.00856
  60        6D 0       -0.00013  -0.00013  -0.00014  -0.00036  -0.00000
  61        6D+1        0.00054   0.00046  -0.00029  -0.00005   0.00117
  62        6D-1        0.00046   0.00054   0.00019  -0.00023   0.00117
  63        6D+2        0.00023  -0.00023  -0.00036   0.00014   0.00000
  64        6D-2        0.00054   0.00054   0.00010   0.00028   0.00117
  65 3   H  1S         -0.00896  -0.00896   0.00000   0.00000   0.06801
  66        2S         -0.01327  -0.01327  -0.00000  -0.00000   0.12873
  67        3S         -0.00002  -0.00002   0.00000  -0.00000   0.05159
  68        4PX        -0.00119  -0.00070  -0.00035   0.00043   0.00254
  69        4PY        -0.00070  -0.00119   0.00054   0.00009   0.00254
  70        4PZ         0.00070   0.00070   0.00019   0.00052  -0.00254
  71        5PX        -0.00257  -0.00127  -0.00094   0.00114   0.00856
  72        5PY        -0.00127  -0.00257   0.00146   0.00024   0.00856
  73        5PZ         0.00127   0.00127   0.00052   0.00138  -0.00856
  74        6D 0        0.00013   0.00013  -0.00014  -0.00036  -0.00000
  75        6D+1        0.00054   0.00046   0.00029   0.00005  -0.00117
  76        6D-1        0.00046   0.00054  -0.00019   0.00023  -0.00117
  77        6D+2       -0.00023   0.00023  -0.00036   0.00014   0.00000
  78        6D-2       -0.00054  -0.00054   0.00010   0.00028   0.00117
  79 4   H  1S          0.00896  -0.00896   0.00000   0.00000   0.06801
  80        2S          0.01327  -0.01327  -0.00000  -0.00000   0.12873
  81        3S          0.00002  -0.00002   0.00000  -0.00000   0.05159
  82        4PX        -0.00119   0.00070   0.00035  -0.00043  -0.00254
  83        4PY         0.00070  -0.00119   0.00054   0.00009   0.00254
  84        4PZ         0.00070  -0.00070  -0.00019  -0.00052   0.00254
  85        5PX        -0.00257   0.00127   0.00094  -0.00114  -0.00856
  86        5PY         0.00127  -0.00257   0.00146   0.00024   0.00856
  87        5PZ         0.00127  -0.00127  -0.00052  -0.00138   0.00856
  88        6D 0       -0.00013   0.00013  -0.00014  -0.00036  -0.00000
  89        6D+1       -0.00054   0.00046   0.00029   0.00005  -0.00117
  90        6D-1        0.00046  -0.00054   0.00019  -0.00023   0.00117
  91        6D+2        0.00023   0.00023  -0.00036   0.00014   0.00000
  92        6D-2       -0.00054   0.00054  -0.00010  -0.00028  -0.00117
  93 5   H  1S         -0.00896   0.00896   0.00000   0.00000   0.06801
  94        2S         -0.01327   0.01327  -0.00000  -0.00000   0.12873
  95        3S         -0.00002   0.00002   0.00000  -0.00000   0.05159
  96        4PX        -0.00119   0.00070  -0.00035   0.00043   0.00254
  97        4PY         0.00070  -0.00119  -0.00054  -0.00009  -0.00254
  98        4PZ        -0.00070   0.00070  -0.00019  -0.00052   0.00254
  99        5PX        -0.00257   0.00127  -0.00094   0.00114   0.00856
 100        5PY         0.00127  -0.00257  -0.00146  -0.00024  -0.00856
 101        5PZ        -0.00127   0.00127  -0.00052  -0.00138   0.00856
 102        6D 0        0.00013  -0.00013  -0.00014  -0.00036  -0.00000
 103        6D+1       -0.00054   0.00046  -0.00029  -0.00005   0.00117
 104        6D-1        0.00046  -0.00054  -0.00019   0.00023  -0.00117
 105        6D+2       -0.00023  -0.00023  -0.00036   0.00014   0.00000
 106        6D-2        0.00054  -0.00054  -0.00010  -0.00028  -0.00117
                          11        12        13        14        15
                        (T2)--O   (T2)--O   (T2)--O   (T2)--V   (T2)--V
     Eigenvalues --    -0.44711  -0.44711  -0.44711   0.10552   0.10552
   1 1   Sn 1S          0.00000   0.00000   0.00000   0.00000   0.00000
   2        2S          0.00000   0.00000   0.00000   0.00000   0.00000
   3        3S          0.00000   0.00000   0.00000   0.00000   0.00000
   4        4S          0.00000   0.00000   0.00000   0.00000   0.00000
   5        5S          0.00000   0.00000   0.00000   0.00000   0.00000
   6        6S          0.00000   0.00000   0.00000   0.00000   0.00000
   7        7PX         0.00000   0.03641   0.00000   0.00000   0.00000
   8        7PY         0.03641   0.00000   0.00000  -0.00784   0.00000
   9        7PZ         0.00000   0.00000   0.03641   0.00000  -0.00784
  10        8PX         0.00000   0.25541   0.00000   0.00000   0.00000
  11        8PY         0.25541   0.00000   0.00000  -0.05584   0.00000
  12        8PZ         0.00000   0.00000   0.25541   0.00000  -0.05584
  13        9PX         0.00000  -0.20932   0.00000   0.00000   0.00000
  14        9PY        -0.20932   0.00000   0.00000   0.08827   0.00000
  15        9PZ         0.00000   0.00000  -0.20932   0.00000   0.08827
  16       10PX         0.00000  -0.22447   0.00000   0.00000   0.00000
  17       10PY        -0.22447   0.00000   0.00000   0.05732   0.00000
  18       10PZ         0.00000   0.00000  -0.22447   0.00000   0.05732
  19       11PX         0.00000  -0.03784   0.00000   0.00000   0.00000
  20       11PY        -0.03784   0.00000   0.00000   1.69193   0.00000
  21       11PZ         0.00000   0.00000  -0.03784   0.00000   1.69193
  22       12D 0        0.00000   0.00000   0.00000   0.00000   0.00000
  23       12D+1        0.13093   0.00000   0.00000   0.10967   0.00000
  24       12D-1        0.00000   0.13093   0.00000   0.00000   0.00000
  25       12D+2        0.00000   0.00000   0.00000   0.00000   0.00000
  26       12D-2        0.00000   0.00000   0.13093   0.00000   0.10967
  27       13D 0        0.00000   0.00000   0.00000   0.00000   0.00000
  28       13D+1       -0.01290   0.00000   0.00000  -0.02300   0.00000
  29       13D-1        0.00000  -0.01290   0.00000   0.00000   0.00000
  30       13D+2        0.00000   0.00000   0.00000   0.00000   0.00000
  31       13D-2        0.00000   0.00000  -0.01290   0.00000  -0.02300
  32       14D 0        0.00000   0.00000   0.00000   0.00000   0.00000
  33       14D+1       -0.04310   0.00000   0.00000   0.10568   0.00000
  34       14D-1        0.00000  -0.04310   0.00000   0.00000   0.00000
  35       14D+2        0.00000   0.00000   0.00000   0.00000   0.00000
  36       14D-2        0.00000   0.00000  -0.04310   0.00000   0.10568
  37       15F 0        0.00000   0.00000   0.01104   0.00000  -0.00310
  38       15F+1        0.00000  -0.00676   0.00000   0.00000   0.00000
  39       15F-1       -0.00676   0.00000   0.00000   0.00190   0.00000
  40       15F+2        0.00000   0.00000  -0.00000   0.00000   0.00000
  41       15F-2        0.00000   0.00000   0.00000   0.00000   0.00000
  42       15F+3        0.00000   0.00873   0.00000   0.00000   0.00000
  43       15F-3       -0.00873   0.00000   0.00000   0.00245   0.00000
  44       16F 0        0.00000   0.00000   0.00752   0.00000   0.00712
  45       16F+1        0.00000  -0.00460   0.00000   0.00000   0.00000
  46       16F-1       -0.00460   0.00000   0.00000  -0.00436   0.00000
  47       16F+2        0.00000   0.00000   0.00000   0.00000  -0.00000
  48       16F-2        0.00000   0.00000   0.00000   0.00000   0.00000
  49       16F+3        0.00000   0.00594   0.00000   0.00000   0.00000
  50       16F-3       -0.00594   0.00000   0.00000  -0.00563   0.00000
  51 2   H  1S         -0.09055  -0.09055  -0.09055  -0.04093  -0.04093
  52        2S         -0.17764  -0.17764  -0.17764  -0.02895  -0.02895
  53        3S         -0.12547  -0.12547  -0.12547  -0.75922  -0.75922
  54        4PX         0.00221   0.00091   0.00221  -0.00285  -0.00285
  55        4PY         0.00091   0.00221   0.00221   0.00036  -0.00285
  56        4PZ         0.00221   0.00221   0.00091  -0.00285   0.00036
  57        5PX         0.01109   0.00698   0.01109   0.00955   0.00955
  58        5PY         0.00698   0.01109   0.01109   0.02603   0.00955
  59        5PZ         0.01109   0.01109   0.00698   0.00955   0.02603
  60        6D 0       -0.00024  -0.00024   0.00048   0.00066  -0.00131
  61        6D+1       -0.00116  -0.00072  -0.00072  -0.00059  -0.00101
  62        6D-1       -0.00072  -0.00116  -0.00072  -0.00101  -0.00101
  63        6D+2       -0.00042   0.00042  -0.00000   0.00114   0.00000
  64        6D-2       -0.00072  -0.00072  -0.00116  -0.00101  -0.00059
  65 3   H  1S          0.09055   0.09055  -0.09055   0.04093  -0.04093
  66        2S          0.17764   0.17764  -0.17764   0.02895  -0.02895
  67        3S          0.12547   0.12547  -0.12547   0.75922  -0.75922
  68        4PX         0.00221   0.00091  -0.00221  -0.00285   0.00285
  69        4PY         0.00091   0.00221  -0.00221   0.00036   0.00285
  70        4PZ        -0.00221  -0.00221   0.00091   0.00285   0.00036
  71        5PX         0.01109   0.00698  -0.01109   0.00955  -0.00955
  72        5PY         0.00698   0.01109  -0.01109   0.02603  -0.00955
  73        5PZ        -0.01109  -0.01109   0.00698  -0.00955   0.02603
  74        6D 0        0.00024   0.00024   0.00048  -0.00066  -0.00131
  75        6D+1       -0.00116  -0.00072   0.00072  -0.00059   0.00101
  76        6D-1       -0.00072  -0.00116   0.00072  -0.00101   0.00101
  77        6D+2        0.00042  -0.00042  -0.00000  -0.00114   0.00000
  78        6D-2        0.00072   0.00072  -0.00116   0.00101  -0.00059
  79 4   H  1S          0.09055  -0.09055   0.09055   0.04093   0.04093
  80        2S          0.17764  -0.17764   0.17764   0.02895   0.02895
  81        3S          0.12547  -0.12547   0.12547   0.75922   0.75922
  82        4PX        -0.00221   0.00091  -0.00221   0.00285   0.00285
  83        4PY         0.00091  -0.00221   0.00221   0.00036  -0.00285
  84        4PZ         0.00221  -0.00221   0.00091  -0.00285   0.00036
  85        5PX        -0.01109   0.00698  -0.01109  -0.00955  -0.00955
  86        5PY         0.00698  -0.01109   0.01109   0.02603   0.00955
  87        5PZ         0.01109  -0.01109   0.00698   0.00955   0.02603
  88        6D 0        0.00024  -0.00024  -0.00048  -0.00066   0.00131
  89        6D+1       -0.00116   0.00072  -0.00072  -0.00059  -0.00101
  90        6D-1        0.00072  -0.00116   0.00072   0.00101   0.00101
  91        6D+2        0.00042   0.00042   0.00000  -0.00114  -0.00000
  92        6D-2       -0.00072   0.00072  -0.00116  -0.00101  -0.00059
  93 5   H  1S         -0.09055   0.09055   0.09055  -0.04093   0.04093
  94        2S         -0.17764   0.17764   0.17764  -0.02895   0.02895
  95        3S         -0.12547   0.12547   0.12547  -0.75922   0.75922
  96        4PX        -0.00221   0.00091   0.00221   0.00285  -0.00285
  97        4PY         0.00091  -0.00221  -0.00221   0.00036   0.00285
  98        4PZ        -0.00221   0.00221   0.00091   0.00285   0.00036
  99        5PX        -0.01109   0.00698   0.01109  -0.00955   0.00955
 100        5PY         0.00698  -0.01109  -0.01109   0.02603  -0.00955
 101        5PZ        -0.01109   0.01109   0.00698  -0.00955   0.02603
 102        6D 0       -0.00024   0.00024  -0.00048   0.00066   0.00131
 103        6D+1       -0.00116   0.00072   0.00072  -0.00059   0.00101
 104        6D-1        0.00072  -0.00116  -0.00072   0.00101  -0.00101
 105        6D+2       -0.00042  -0.00042   0.00000   0.00114  -0.00000
 106        6D-2        0.00072  -0.00072  -0.00116   0.00101  -0.00059
                          16        17        18        19        20
                        (T2)--V   (A1)--V   (T2)--V   (T2)--V   (T2)--V
     Eigenvalues --     0.10552   0.14749   0.19737   0.19737   0.19737
   1 1   Sn 1S          0.00000  -0.24721   0.00000   0.00000   0.00000
   2        2S          0.00000   0.39253   0.00000   0.00000   0.00000
   3        3S          0.00000  -0.30088   0.00000   0.00000   0.00000
   4        4S          0.00000  -0.30906   0.00000   0.00000   0.00000
   5        5S          0.00000   0.53216   0.00000   0.00000   0.00000
   6        6S          0.00000   2.46803   0.00000   0.00000   0.00000
   7        7PX        -0.00784   0.00000   0.00000   0.00000  -0.03334
   8        7PY         0.00000   0.00000   0.00000  -0.03334   0.00000
   9        7PZ         0.00000   0.00000  -0.03334   0.00000   0.00000
  10        8PX        -0.05584   0.00000   0.00000   0.00000  -0.23721
  11        8PY         0.00000   0.00000   0.00000  -0.23721   0.00000
  12        8PZ         0.00000   0.00000  -0.23721   0.00000   0.00000
  13        9PX         0.08827   0.00000   0.00000   0.00000  -0.00515
  14        9PY         0.00000   0.00000   0.00000  -0.00515   0.00000
  15        9PZ         0.00000   0.00000  -0.00515   0.00000   0.00000
  16       10PX         0.05732   0.00000   0.00000   0.00000   1.68614
  17       10PY         0.00000   0.00000   0.00000   1.68614   0.00000
  18       10PZ         0.00000   0.00000   1.68614   0.00000   0.00000
  19       11PX         1.69193   0.00000   0.00000   0.00000  -0.79774
  20       11PY         0.00000   0.00000   0.00000  -0.79774   0.00000
  21       11PZ         0.00000   0.00000  -0.79774   0.00000   0.00000
  22       12D 0        0.00000   0.00000   0.00000   0.00000   0.00000
  23       12D+1        0.00000   0.00000   0.00000   0.07424   0.00000
  24       12D-1        0.10967   0.00000   0.00000   0.00000   0.07424
  25       12D+2        0.00000  -0.00000   0.00000   0.00000   0.00000
  26       12D-2        0.00000   0.00000   0.07424   0.00000   0.00000
  27       13D 0        0.00000  -0.00000   0.00000   0.00000   0.00000
  28       13D+1        0.00000   0.00000   0.00000   0.04927   0.00000
  29       13D-1       -0.02300   0.00000   0.00000   0.00000   0.04927
  30       13D+2        0.00000   0.00000   0.00000   0.00000   0.00000
  31       13D-2        0.00000   0.00000   0.04927   0.00000   0.00000
  32       14D 0        0.00000   0.00000   0.00000   0.00000   0.00000
  33       14D+1        0.00000   0.00000   0.00000  -0.08492   0.00000
  34       14D-1        0.10568   0.00000   0.00000   0.00000  -0.08492
  35       14D+2        0.00000  -0.00000   0.00000   0.00000   0.00000
  36       14D-2        0.00000   0.00000  -0.08492   0.00000   0.00000
  37       15F 0        0.00000   0.00000  -0.02205   0.00000   0.00000
  38       15F+1        0.00190   0.00000   0.00000   0.00000   0.01350
  39       15F-1        0.00000   0.00000   0.00000   0.01350   0.00000
  40       15F+2        0.00000   0.00000  -0.00000   0.00000   0.00000
  41       15F-2        0.00000  -0.02063   0.00000   0.00000   0.00000
  42       15F+3       -0.00245   0.00000   0.00000   0.00000  -0.01743
  43       15F-3        0.00000   0.00000   0.00000   0.01743   0.00000
  44       16F 0        0.00000   0.00000   0.00312   0.00000   0.00000
  45       16F+1       -0.00436   0.00000   0.00000   0.00000  -0.00191
  46       16F-1        0.00000   0.00000   0.00000  -0.00191   0.00000
  47       16F+2        0.00000   0.00000   0.00000   0.00000   0.00000
  48       16F-2        0.00000  -0.01012   0.00000   0.00000   0.00000
  49       16F+3        0.00563   0.00000   0.00000   0.00000   0.00247
  50       16F-3        0.00000   0.00000   0.00000  -0.00247   0.00000
  51 2   H  1S         -0.04093  -0.05739  -0.01327  -0.01327  -0.01327
  52        2S         -0.02895   0.01849  -0.02919  -0.02919  -0.02919
  53        3S         -0.75922  -1.09802  -0.50130  -0.50130  -0.50130
  54        4PX         0.00036  -0.00628  -0.00686  -0.00686  -0.00355
  55        4PY        -0.00285  -0.00628  -0.00686  -0.00355  -0.00686
  56        4PZ        -0.00285  -0.00628  -0.00355  -0.00686  -0.00686
  57        5PX         0.02603   0.01379   0.02058   0.02058   0.03188
  58        5PY         0.00955   0.01379   0.02058   0.03188   0.02058
  59        5PZ         0.00955   0.01379   0.03188   0.02058   0.02058
  60        6D 0        0.00066  -0.00000  -0.00002   0.00001   0.00001
  61        6D+1       -0.00101  -0.00119  -0.00119  -0.00104  -0.00119
  62        6D-1       -0.00059  -0.00119  -0.00119  -0.00119  -0.00104
  63        6D+2       -0.00114  -0.00000  -0.00000   0.00002  -0.00002
  64        6D-2       -0.00101  -0.00119  -0.00104  -0.00119  -0.00119
  65 3   H  1S          0.04093  -0.05739  -0.01327   0.01327   0.01327
  66        2S          0.02895   0.01849  -0.02919   0.02919   0.02919
  67        3S          0.75922  -1.09802  -0.50130   0.50130   0.50130
  68        4PX         0.00036   0.00628   0.00686  -0.00686  -0.00355
  69        4PY        -0.00285   0.00628   0.00686  -0.00355  -0.00686
  70        4PZ         0.00285  -0.00628  -0.00355   0.00686   0.00686
  71        5PX         0.02603  -0.01379  -0.02058   0.02058   0.03188
  72        5PY         0.00955  -0.01379  -0.02058   0.03188   0.02058
  73        5PZ        -0.00955   0.01379   0.03188  -0.02058  -0.02058
  74        6D 0       -0.00066  -0.00000  -0.00002  -0.00001  -0.00001
  75        6D+1       -0.00101   0.00119   0.00119  -0.00104  -0.00119
  76        6D-1       -0.00059   0.00119   0.00119  -0.00119  -0.00104
  77        6D+2        0.00114  -0.00000  -0.00000  -0.00002   0.00002
  78        6D-2        0.00101  -0.00119  -0.00104   0.00119   0.00119
  79 4   H  1S         -0.04093  -0.05739   0.01327   0.01327  -0.01327
  80        2S         -0.02895   0.01849   0.02919   0.02919  -0.02919
  81        3S         -0.75922  -1.09802   0.50130   0.50130  -0.50130
  82        4PX         0.00036  -0.00628   0.00686   0.00686  -0.00355
  83        4PY         0.00285   0.00628  -0.00686  -0.00355   0.00686
  84        4PZ         0.00285   0.00628  -0.00355  -0.00686   0.00686
  85        5PX         0.02603   0.01379  -0.02058  -0.02058   0.03188
  86        5PY        -0.00955  -0.01379   0.02058   0.03188  -0.02058
  87        5PZ        -0.00955  -0.01379   0.03188   0.02058  -0.02058
  88        6D 0        0.00066  -0.00000   0.00002  -0.00001   0.00001
  89        6D+1        0.00101   0.00119  -0.00119  -0.00104   0.00119
  90        6D-1       -0.00059  -0.00119   0.00119   0.00119  -0.00104
  91        6D+2       -0.00114  -0.00000   0.00000  -0.00002  -0.00002
  92        6D-2        0.00101   0.00119  -0.00104  -0.00119   0.00119
  93 5   H  1S          0.04093  -0.05739   0.01327  -0.01327   0.01327
  94        2S          0.02895   0.01849   0.02919  -0.02919   0.02919
  95        3S          0.75922  -1.09802   0.50130  -0.50130   0.50130
  96        4PX         0.00036   0.00628  -0.00686   0.00686  -0.00355
  97        4PY         0.00285  -0.00628   0.00686  -0.00355   0.00686
  98        4PZ        -0.00285   0.00628  -0.00355   0.00686  -0.00686
  99        5PX         0.02603  -0.01379   0.02058  -0.02058   0.03188
 100        5PY        -0.00955   0.01379  -0.02058   0.03188  -0.02058
 101        5PZ         0.00955  -0.01379   0.03188  -0.02058   0.02058
 102        6D 0       -0.00066  -0.00000   0.00002   0.00001  -0.00001
 103        6D+1        0.00101  -0.00119   0.00119  -0.00104   0.00119
 104        6D-1       -0.00059   0.00119  -0.00119   0.00119  -0.00104
 105        6D+2        0.00114  -0.00000   0.00000   0.00002   0.00002
 106        6D-2       -0.00101   0.00119  -0.00104   0.00119  -0.00119
                          21        22        23        24        25
                        (E)--V    (E)--V    (A1)--V   (T2)--V   (T2)--V
     Eigenvalues --     0.27667   0.27667   0.33414   0.39017   0.39017
   1 1   Sn 1S         -0.00000  -0.00000   0.02375   0.00000   0.00000
   2        2S          0.00000   0.00000  -0.03956   0.00000   0.00000
   3        3S         -0.00000  -0.00000  -0.01716   0.00000   0.00000
   4        4S          0.00000   0.00000   0.21996   0.00000   0.00000
   5        5S         -0.00000   0.00000  -1.44195   0.00000   0.00000
   6        6S         -0.00000  -0.00000   2.77473   0.00000   0.00000
   7        7PX        -0.00000   0.00000   0.00000   0.00000   0.00000
   8        7PY        -0.00000   0.00000   0.00000   0.00000  -0.00010
   9        7PZ        -0.00000   0.00000   0.00000  -0.00010   0.00000
  10        8PX        -0.00000   0.00000   0.00000   0.00000   0.00000
  11        8PY        -0.00000   0.00000   0.00000   0.00000   0.00034
  12        8PZ        -0.00000   0.00000   0.00000   0.00034   0.00000
  13        9PX        -0.00000   0.00000   0.00000   0.00000   0.00000
  14        9PY        -0.00000   0.00000   0.00000   0.00000   0.06809
  15        9PZ        -0.00000   0.00000   0.00000   0.06809   0.00000
  16       10PX        -0.00000   0.00000   0.00000   0.00000   0.00000
  17       10PY        -0.00000   0.00000   0.00000   0.00000  -1.37731
  18       10PZ        -0.00000   0.00000   0.00000  -1.37731   0.00000
  19       11PX        -0.00000   0.00000   0.00000   0.00000   0.00000
  20       11PY        -0.00000   0.00000   0.00000   0.00000  -1.73357
  21       11PZ        -0.00000   0.00000   0.00000  -1.73357   0.00000
  22       12D 0        0.07893  -0.16312  -0.00000   0.00000   0.00000
  23       12D+1       -0.00000   0.00000   0.00000   0.00000   0.17699
  24       12D-1       -0.00000   0.00000   0.00000   0.00000   0.00000
  25       12D+2       -0.16312  -0.07893   0.00000   0.00000   0.00000
  26       12D-2       -0.00000   0.00000   0.00000   0.17699   0.00000
  27       13D 0        0.03939  -0.08141  -0.00000   0.00000   0.00000
  28       13D+1       -0.00000   0.00000   0.00000   0.00000   0.00133
  29       13D-1       -0.00000   0.00000   0.00000   0.00000   0.00000
  30       13D+2       -0.08141  -0.03939  -0.00000   0.00000   0.00000
  31       13D-2       -0.00000   0.00000   0.00000   0.00133   0.00000
  32       14D 0       -0.45826   0.94710   0.00000   0.00000   0.00000
  33       14D+1       -0.00000   0.00000   0.00000   0.00000  -1.95217
  34       14D-1       -0.00000   0.00000   0.00000   0.00000   0.00000
  35       14D+2        0.94710   0.45826  -0.00000   0.00000   0.00000
  36       14D-2       -0.00000   0.00000   0.00000  -1.95217   0.00000
  37       15F 0       -0.00000   0.00000   0.00000   0.14475   0.00000
  38       15F+1       -0.00000   0.00000   0.00000   0.00000   0.00000
  39       15F-1       -0.00000   0.00000   0.00000   0.00000  -0.08864
  40       15F+2       -0.00000   0.00000   0.00000  -0.00000   0.00000
  41       15F-2       -0.00000   0.00000   0.10912   0.00000   0.00000
  42       15F+3       -0.00000   0.00000   0.00000   0.00000   0.00000
  43       15F-3       -0.00000   0.00000   0.00000   0.00000  -0.11443
  44       16F 0       -0.00000   0.00000   0.00000  -0.01122   0.00000
  45       16F+1       -0.00000   0.00000   0.00000   0.00000   0.00000
  46       16F-1       -0.00000   0.00000   0.00000   0.00000   0.00687
  47       16F+2       -0.00000   0.00000   0.00000  -0.00000   0.00000
  48       16F-2       -0.00000   0.00000  -0.05304   0.00000   0.00000
  49       16F+3       -0.00000   0.00000   0.00000   0.00000   0.00000
  50       16F-3       -0.00000   0.00000   0.00000   0.00000   0.00887
  51 2   H  1S         -0.00000   0.00000  -0.04888  -0.03882  -0.03882
  52        2S          0.00000   0.00000  -0.58757  -0.09192  -0.09192
  53        3S          0.00000   0.00000  -0.15217   2.16867   2.16867
  54        4PX         0.00694  -0.00051   0.00227   0.01047   0.01047
  55        4PY        -0.00391  -0.00576   0.00227   0.01047   0.01669
  56        4PZ        -0.00303   0.00627   0.00227   0.01669   0.01047
  57        5PX        -0.00385   0.00028   0.03743  -0.08229  -0.08229
  58        5PY         0.00217   0.00319   0.03743  -0.08229  -0.10757
  59        5PZ         0.00168  -0.00347   0.03743  -0.10757  -0.08229
  60        6D 0       -0.00067   0.00138   0.00000   0.00362  -0.00181
  61        6D+1        0.00076   0.00112  -0.00281   0.00346  -0.00008
  62        6D-1       -0.00135   0.00010  -0.00281   0.00346   0.00346
  63        6D+2        0.00138   0.00067  -0.00000  -0.00000  -0.00314
  64        6D-2        0.00059  -0.00122  -0.00281  -0.00008   0.00346
  65 3   H  1S         -0.00000   0.00000  -0.04888  -0.03882   0.03882
  66        2S          0.00000   0.00000  -0.58757  -0.09192   0.09192
  67        3S          0.00000   0.00000  -0.15217   2.16867  -2.16867
  68        4PX        -0.00694   0.00051  -0.00227  -0.01047   0.01047
  69        4PY         0.00391   0.00576  -0.00227  -0.01047   0.01669
  70        4PZ        -0.00303   0.00627   0.00227   0.01669  -0.01047
  71        5PX         0.00385  -0.00028  -0.03743   0.08229  -0.08229
  72        5PY        -0.00217  -0.00319  -0.03743   0.08229  -0.10757
  73        5PZ         0.00168  -0.00347   0.03743  -0.10757   0.08229
  74        6D 0       -0.00067   0.00138   0.00000   0.00362   0.00181
  75        6D+1       -0.00076  -0.00112   0.00281  -0.00346  -0.00008
  76        6D-1        0.00135  -0.00010   0.00281  -0.00346   0.00346
  77        6D+2        0.00138   0.00067  -0.00000  -0.00000   0.00314
  78        6D-2        0.00059  -0.00122  -0.00281  -0.00008  -0.00346
  79 4   H  1S         -0.00000   0.00000  -0.04888   0.03882   0.03882
  80        2S          0.00000   0.00000  -0.58757   0.09192   0.09192
  81        3S          0.00000   0.00000  -0.15217  -2.16867  -2.16867
  82        4PX         0.00694  -0.00051   0.00227  -0.01047  -0.01047
  83        4PY         0.00391   0.00576  -0.00227   0.01047   0.01669
  84        4PZ         0.00303  -0.00627  -0.00227   0.01669   0.01047
  85        5PX        -0.00385   0.00028   0.03743   0.08229   0.08229
  86        5PY        -0.00217  -0.00319  -0.03743  -0.08229  -0.10757
  87        5PZ        -0.00168   0.00347  -0.03743  -0.10757  -0.08229
  88        6D 0       -0.00067   0.00138   0.00000  -0.00362   0.00181
  89        6D+1       -0.00076  -0.00112   0.00281   0.00346  -0.00008
  90        6D-1       -0.00135   0.00010  -0.00281  -0.00346  -0.00346
  91        6D+2        0.00138   0.00067  -0.00000   0.00000   0.00314
  92        6D-2       -0.00059   0.00122   0.00281  -0.00008   0.00346
  93 5   H  1S         -0.00000   0.00000  -0.04888   0.03882  -0.03882
  94        2S          0.00000   0.00000  -0.58757   0.09192  -0.09192
  95        3S          0.00000   0.00000  -0.15217  -2.16867   2.16867
  96        4PX        -0.00694   0.00051  -0.00227   0.01047  -0.01047
  97        4PY        -0.00391  -0.00576   0.00227  -0.01047   0.01669
  98        4PZ         0.00303  -0.00627  -0.00227   0.01669  -0.01047
  99        5PX         0.00385  -0.00028  -0.03743  -0.08229   0.08229
 100        5PY         0.00217   0.00319   0.03743   0.08229  -0.10757
 101        5PZ        -0.00168   0.00347  -0.03743  -0.10757   0.08229
 102        6D 0       -0.00067   0.00138   0.00000  -0.00362  -0.00181
 103        6D+1        0.00076   0.00112  -0.00281  -0.00346  -0.00008
 104        6D-1        0.00135  -0.00010   0.00281   0.00346  -0.00346
 105        6D+2        0.00138   0.00067  -0.00000   0.00000  -0.00314
 106        6D-2       -0.00059   0.00122   0.00281  -0.00008  -0.00346
                          26        27        28        29        30
                        (T2)--V   (A1)--V   (T2)--V   (T2)--V   (T2)--V
     Eigenvalues --     0.39017   0.50522   0.58179   0.58179   0.58179
   1 1   Sn 1S          0.00000   0.26398   0.00000   0.00000   0.00000
   2        2S          0.00000  -0.42047   0.00000   0.00000   0.00000
   3        3S          0.00000   0.30936   0.00000   0.00000   0.00000
   4        4S          0.00000   0.43855   0.00000   0.00000   0.00000
   5        5S          0.00000  -2.58766   0.00000   0.00000   0.00000
   6        6S          0.00000   6.50646   0.00000   0.00000   0.00000
   7        7PX        -0.00010   0.00000   0.00000   0.00000  -0.01757
   8        7PY         0.00000   0.00000   0.00000  -0.01757   0.00000
   9        7PZ         0.00000   0.00000  -0.01757   0.00000   0.00000
  10        8PX         0.00034   0.00000   0.00000   0.00000  -0.12718
  11        8PY         0.00000   0.00000   0.00000  -0.12718   0.00000
  12        8PZ         0.00000   0.00000  -0.12718   0.00000   0.00000
  13        9PX         0.06809   0.00000   0.00000   0.00000  -0.11668
  14        9PY         0.00000   0.00000   0.00000  -0.11668   0.00000
  15        9PZ         0.00000   0.00000  -0.11668   0.00000   0.00000
  16       10PX        -1.37731   0.00000   0.00000   0.00000   1.50701
  17       10PY         0.00000   0.00000   0.00000   1.50701   0.00000
  18       10PZ         0.00000   0.00000   1.50701   0.00000   0.00000
  19       11PX        -1.73357   0.00000   0.00000   0.00000  -0.14005
  20       11PY         0.00000   0.00000   0.00000  -0.14005   0.00000
  21       11PZ         0.00000   0.00000  -0.14005   0.00000   0.00000
  22       12D 0        0.00000   0.00000   0.00000   0.00000   0.00000
  23       12D+1        0.00000   0.00000   0.00000   0.02735   0.00000
  24       12D-1        0.17699   0.00000   0.00000   0.00000   0.02735
  25       12D+2        0.00000   0.00000   0.00000   0.00000   0.00000
  26       12D-2        0.00000   0.00000   0.02735   0.00000   0.00000
  27       13D 0        0.00000  -0.00000   0.00000   0.00000   0.00000
  28       13D+1        0.00000   0.00000   0.00000  -0.14134   0.00000
  29       13D-1        0.00133   0.00000   0.00000   0.00000  -0.14134
  30       13D+2        0.00000  -0.00000   0.00000   0.00000   0.00000
  31       13D-2        0.00000   0.00000  -0.14134   0.00000   0.00000
  32       14D 0        0.00000  -0.00000   0.00000   0.00000   0.00000
  33       14D+1        0.00000   0.00000   0.00000   1.53202   0.00000
  34       14D-1       -1.95217   0.00000   0.00000   0.00000   1.53202
  35       14D+2        0.00000  -0.00000   0.00000   0.00000   0.00000
  36       14D-2        0.00000   0.00000   1.53202   0.00000   0.00000
  37       15F 0        0.00000   0.00000   0.07674   0.00000   0.00000
  38       15F+1       -0.08864   0.00000   0.00000   0.00000  -0.04699
  39       15F-1        0.00000   0.00000   0.00000  -0.04699   0.00000
  40       15F+2        0.00000   0.00000  -0.00000   0.00000   0.00000
  41       15F-2        0.00000   0.37613   0.00000   0.00000   0.00000
  42       15F+3        0.11443   0.00000   0.00000   0.00000   0.06067
  43       15F-3        0.00000   0.00000   0.00000  -0.06067   0.00000
  44       16F 0        0.00000   0.00000   0.04838   0.00000   0.00000
  45       16F+1        0.00687   0.00000   0.00000   0.00000  -0.02963
  46       16F-1        0.00000   0.00000   0.00000  -0.02963   0.00000
  47       16F+2        0.00000   0.00000   0.00000   0.00000   0.00000
  48       16F-2        0.00000   0.00085   0.00000   0.00000   0.00000
  49       16F+3       -0.00887   0.00000   0.00000   0.00000   0.03825
  50       16F-3        0.00000   0.00000   0.00000  -0.03825   0.00000
  51 2   H  1S         -0.03882   0.06010  -0.03032  -0.03032  -0.03032
  52        2S         -0.09192   0.27491  -0.88714  -0.88714  -0.88714
  53        3S          2.16867  -1.91923  -0.02420  -0.02420  -0.02420
  54        4PX         0.01669  -0.01186   0.00442   0.00442  -0.00837
  55        4PY         0.01047  -0.01186   0.00442  -0.00837   0.00442
  56        4PZ         0.01047  -0.01186  -0.00837   0.00442   0.00442
  57        5PX        -0.10757   0.15044  -0.01388  -0.01388   0.10190
  58        5PY        -0.08229   0.15044  -0.01388   0.10190  -0.01388
  59        5PZ        -0.08229   0.15044   0.10190  -0.01388  -0.01388
  60        6D 0       -0.00181  -0.00000  -0.00155   0.00077   0.00077
  61        6D+1        0.00346  -0.00713  -0.00145   0.00582  -0.00145
  62        6D-1       -0.00008  -0.00713  -0.00145  -0.00145   0.00582
  63        6D+2        0.00314  -0.00000  -0.00000   0.00134  -0.00134
  64        6D-2        0.00346  -0.00713   0.00582  -0.00145  -0.00145
  65 3   H  1S          0.03882   0.06010  -0.03032   0.03032   0.03032
  66        2S          0.09192   0.27491  -0.88714   0.88714   0.88714
  67        3S         -2.16867  -1.91923  -0.02420   0.02420   0.02420
  68        4PX         0.01669   0.01186  -0.00442   0.00442  -0.00837
  69        4PY         0.01047   0.01186  -0.00442  -0.00837   0.00442
  70        4PZ        -0.01047  -0.01186  -0.00837  -0.00442  -0.00442
  71        5PX        -0.10757  -0.15044   0.01388  -0.01388   0.10190
  72        5PY        -0.08229  -0.15044   0.01388   0.10190  -0.01388
  73        5PZ         0.08229   0.15044   0.10190   0.01388   0.01388
  74        6D 0        0.00181  -0.00000  -0.00155  -0.00077  -0.00077
  75        6D+1        0.00346   0.00713   0.00145   0.00582  -0.00145
  76        6D-1       -0.00008   0.00713   0.00145  -0.00145   0.00582
  77        6D+2       -0.00314  -0.00000  -0.00000  -0.00134   0.00134
  78        6D-2       -0.00346  -0.00713   0.00582   0.00145   0.00145
  79 4   H  1S         -0.03882   0.06010   0.03032   0.03032  -0.03032
  80        2S         -0.09192   0.27491   0.88714   0.88714  -0.88714
  81        3S          2.16867  -1.91923   0.02420   0.02420  -0.02420
  82        4PX         0.01669  -0.01186  -0.00442  -0.00442  -0.00837
  83        4PY        -0.01047   0.01186   0.00442  -0.00837  -0.00442
  84        4PZ        -0.01047   0.01186  -0.00837   0.00442  -0.00442
  85        5PX        -0.10757   0.15044   0.01388   0.01388   0.10190
  86        5PY         0.08229  -0.15044  -0.01388   0.10190   0.01388
  87        5PZ         0.08229  -0.15044   0.10190  -0.01388   0.01388
  88        6D 0       -0.00181  -0.00000   0.00155  -0.00077   0.00077
  89        6D+1       -0.00346   0.00713  -0.00145   0.00582   0.00145
  90        6D-1       -0.00008  -0.00713   0.00145   0.00145   0.00582
  91        6D+2        0.00314  -0.00000   0.00000  -0.00134  -0.00134
  92        6D-2       -0.00346   0.00713   0.00582  -0.00145   0.00145
  93 5   H  1S          0.03882   0.06010   0.03032  -0.03032   0.03032
  94        2S          0.09192   0.27491   0.88714  -0.88714   0.88714
  95        3S         -2.16867  -1.91923   0.02420  -0.02420   0.02420
  96        4PX         0.01669   0.01186   0.00442  -0.00442  -0.00837
  97        4PY        -0.01047  -0.01186  -0.00442  -0.00837  -0.00442
  98        4PZ         0.01047   0.01186  -0.00837  -0.00442   0.00442
  99        5PX        -0.10757  -0.15044  -0.01388   0.01388   0.10190
 100        5PY         0.08229   0.15044   0.01388   0.10190   0.01388
 101        5PZ        -0.08229  -0.15044   0.10190   0.01388  -0.01388
 102        6D 0        0.00181  -0.00000   0.00155   0.00077  -0.00077
 103        6D+1       -0.00346  -0.00713   0.00145   0.00582   0.00145
 104        6D-1       -0.00008   0.00713  -0.00145   0.00145   0.00582
 105        6D+2       -0.00314  -0.00000   0.00000   0.00134   0.00134
 106        6D-2        0.00346   0.00713   0.00582   0.00145  -0.00145
                          31        32        33        34        35
                        (T1)--V   (T1)--V   (T1)--V   (T2)--V   (T2)--V
     Eigenvalues --     0.72422   0.72422   0.72422   0.82562   0.82562
   1 1   Sn 1S          0.00000   0.00000   0.00000   0.00000   0.00000
   2        2S          0.00000   0.00000   0.00000   0.00000   0.00000
   3        3S          0.00000   0.00000   0.00000   0.00000   0.00000
   4        4S          0.00000   0.00000   0.00000   0.00000   0.00000
   5        5S          0.00000   0.00000   0.00000   0.00000   0.00000
   6        6S          0.00000   0.00000   0.00000   0.00000   0.00000
   7        7PX         0.00000   0.00000   0.00000   0.00000   0.00000
   8        7PY         0.00000   0.00000   0.00000   0.00000   0.07974
   9        7PZ        -0.00000   0.00000   0.00000   0.07974   0.00000
  10        8PX         0.00000   0.00000   0.00000   0.00000   0.00000
  11        8PY         0.00000   0.00000   0.00000   0.00000   0.59416
  12        8PZ        -0.00000   0.00000   0.00000   0.59416   0.00000
  13        9PX         0.00000   0.00000   0.00000   0.00000   0.00000
  14        9PY         0.00000  -0.00000   0.00000   0.00000  -1.74724
  15        9PZ         0.00000   0.00000   0.00000  -1.74724   0.00000
  16       10PX         0.00000   0.00000  -0.00000   0.00000   0.00000
  17       10PY         0.00000   0.00000   0.00000   0.00000   3.05252
  18       10PZ        -0.00000   0.00000   0.00000   3.05252   0.00000
  19       11PX         0.00000   0.00000   0.00000   0.00000   0.00000
  20       11PY         0.00000  -0.00000   0.00000   0.00000  -0.32424
  21       11PZ         0.00000   0.00000   0.00000  -0.32424   0.00000
  22       12D 0        0.00000   0.00000   0.00000   0.00000   0.00000
  23       12D+1        0.00000   0.00000   0.00000   0.00000   0.01602
  24       12D-1        0.00000   0.00000   0.00000   0.00000   0.00000
  25       12D+2        0.00000   0.00000   0.00000   0.00000   0.00000
  26       12D-2        0.00000   0.00000   0.00000   0.01602   0.00000
  27       13D 0        0.00000   0.00000   0.00000   0.00000   0.00000
  28       13D+1        0.00000   0.00000   0.00000   0.00000   0.15366
  29       13D-1        0.00000   0.00000   0.00000   0.00000   0.00000
  30       13D+2        0.00000   0.00000   0.00000   0.00000   0.00000
  31       13D-2       -0.00000   0.00000   0.00000   0.15366   0.00000
  32       14D 0        0.00000   0.00000   0.00000   0.00000   0.00000
  33       14D+1        0.00000   0.00000   0.00000   0.00000   0.86916
  34       14D-1        0.00000   0.00000  -0.00000   0.00000   0.00000
  35       14D+2        0.00000   0.00000   0.00000   0.00000   0.00000
  36       14D-2       -0.00000   0.00000   0.00000   0.86916   0.00000
  37       15F 0        0.00000   0.00000   0.00000  -0.09675   0.00000
  38       15F+1        0.00000   0.00000   0.27537   0.00000   0.00000
  39       15F-1        0.00000   0.27537   0.00000   0.00000   0.05925
  40       15F+2        0.34832   0.00000   0.00000   0.00000   0.00000
  41       15F-2        0.00000   0.00000   0.00000   0.00000   0.00000
  42       15F+3        0.00000   0.00000   0.21330   0.00000   0.00000
  43       15F-3        0.00000  -0.21330   0.00000   0.00000   0.07649
  44       16F 0       -0.00000   0.00000   0.00000   0.03314   0.00000
  45       16F+1        0.00000   0.00000   0.04910   0.00000   0.00000
  46       16F-1        0.00000   0.04910   0.00000   0.00000  -0.02030
  47       16F+2        0.06210   0.00000   0.00000   0.00000   0.00000
  48       16F-2        0.00000   0.00000   0.00000   0.00000   0.00000
  49       16F+3        0.00000   0.00000   0.03803   0.00000   0.00000
  50       16F-3        0.00000  -0.03803   0.00000   0.00000  -0.02620
  51 2   H  1S          0.00000  -0.00000   0.00000   0.03410   0.03410
  52        2S          0.00000  -0.00000   0.00000  -0.22792  -0.22792
  53        3S          0.00000  -0.00000  -0.00000  -0.83975  -0.83975
  54        4PX        -0.02300   0.02300  -0.00000  -0.00873  -0.00873
  55        4PY         0.02300  -0.00000   0.02300  -0.00873  -0.02245
  56        4PZ         0.00000  -0.02300  -0.02300  -0.02245  -0.00873
  57        5PX         0.27178  -0.27178   0.00000   0.18007   0.18007
  58        5PY        -0.27178   0.00000  -0.27178   0.18007   0.32127
  59        5PZ        -0.00000   0.27178   0.27178   0.32127   0.18007
  60        6D 0       -0.00000   0.00152   0.00152   0.00403  -0.00202
  61        6D+1        0.00207  -0.00000   0.00207  -0.00542  -0.00377
  62        6D-1       -0.00207   0.00207  -0.00000  -0.00542  -0.00542
  63        6D+2        0.00175  -0.00088   0.00088  -0.00000  -0.00349
  64        6D-2        0.00000  -0.00207  -0.00207  -0.00377  -0.00542
  65 3   H  1S          0.00000   0.00000  -0.00000   0.03410  -0.03410
  66        2S          0.00000   0.00000  -0.00000  -0.22792   0.22792
  67        3S          0.00000   0.00000   0.00000  -0.83975   0.83975
  68        4PX         0.02300   0.02300  -0.00000   0.00873  -0.00873
  69        4PY        -0.02300  -0.00000   0.02300   0.00873  -0.02245
  70        4PZ         0.00000   0.02300   0.02300  -0.02245   0.00873
  71        5PX        -0.27178  -0.27178   0.00000  -0.18007   0.18007
  72        5PY         0.27178   0.00000  -0.27178  -0.18007   0.32127
  73        5PZ        -0.00000  -0.27178  -0.27178   0.32127  -0.18007
  74        6D 0       -0.00000  -0.00152  -0.00152   0.00403   0.00202
  75        6D+1       -0.00207  -0.00000   0.00207   0.00542  -0.00377
  76        6D-1        0.00207   0.00207  -0.00000   0.00542  -0.00542
  77        6D+2        0.00175   0.00088  -0.00088  -0.00000   0.00349
  78        6D-2        0.00000   0.00207   0.00207  -0.00377   0.00542
  79 4   H  1S         -0.00000   0.00000   0.00000  -0.03410  -0.03410
  80        2S         -0.00000   0.00000   0.00000   0.22792   0.22792
  81        3S         -0.00000   0.00000  -0.00000   0.83975   0.83975
  82        4PX         0.02300  -0.02300  -0.00000   0.00873   0.00873
  83        4PY         0.02300  -0.00000  -0.02300  -0.00873  -0.02245
  84        4PZ         0.00000  -0.02300   0.02300  -0.02245  -0.00873
  85        5PX        -0.27178   0.27178   0.00000  -0.18007  -0.18007
  86        5PY        -0.27178   0.00000   0.27178   0.18007   0.32127
  87        5PZ        -0.00000   0.27178  -0.27178   0.32127   0.18007
  88        6D 0        0.00000  -0.00152   0.00152  -0.00403   0.00202
  89        6D+1        0.00207  -0.00000  -0.00207  -0.00542  -0.00377
  90        6D-1        0.00207  -0.00207  -0.00000   0.00542   0.00542
  91        6D+2       -0.00175   0.00088   0.00088   0.00000   0.00349
  92        6D-2        0.00000  -0.00207   0.00207  -0.00377  -0.00542
  93 5   H  1S         -0.00000  -0.00000  -0.00000  -0.03410   0.03410
  94        2S         -0.00000  -0.00000  -0.00000   0.22792  -0.22792
  95        3S         -0.00000  -0.00000   0.00000   0.83975  -0.83975
  96        4PX        -0.02300  -0.02300  -0.00000  -0.00873   0.00873
  97        4PY        -0.02300  -0.00000  -0.02300   0.00873  -0.02245
  98        4PZ         0.00000   0.02300  -0.02300  -0.02245   0.00873
  99        5PX         0.27178   0.27178   0.00000   0.18007  -0.18007
 100        5PY         0.27178   0.00000   0.27178  -0.18007   0.32127
 101        5PZ        -0.00000  -0.27178   0.27178   0.32127  -0.18007
 102        6D 0        0.00000   0.00152  -0.00152  -0.00403  -0.00202
 103        6D+1       -0.00207  -0.00000  -0.00207   0.00542  -0.00377
 104        6D-1       -0.00207  -0.00207  -0.00000  -0.00542   0.00542
 105        6D+2       -0.00175  -0.00088  -0.00088   0.00000  -0.00349
 106        6D-2        0.00000   0.00207  -0.00207  -0.00377   0.00542
                          36        37        38        39        40
                        (T2)--V   (T2)--V   (T2)--V   (T2)--V   (E)--V
     Eigenvalues --     0.82562   0.95997   0.95997   0.95997   1.10619
   1 1   Sn 1S          0.00000   0.00000   0.00000   0.00000  -0.00000
   2        2S          0.00000   0.00000   0.00000   0.00000   0.00000
   3        3S          0.00000   0.00000   0.00000   0.00000  -0.00000
   4        4S          0.00000   0.00000   0.00000   0.00000   0.00000
   5        5S          0.00000   0.00000   0.00000   0.00000  -0.00000
   6        6S          0.00000   0.00000   0.00000   0.00000  -0.00000
   7        7PX         0.07974   0.00000   0.00000   0.02345   0.00000
   8        7PY         0.00000   0.02345   0.00000   0.00000   0.00000
   9        7PZ         0.00000   0.00000   0.02345   0.00000   0.00000
  10        8PX         0.59416   0.00000   0.00000   0.17819   0.00000
  11        8PY         0.00000   0.17819   0.00000   0.00000   0.00000
  12        8PZ         0.00000   0.00000   0.17819   0.00000   0.00000
  13        9PX        -1.74724   0.00000   0.00000  -0.93108   0.00000
  14        9PY         0.00000  -0.93108   0.00000   0.00000   0.00000
  15        9PZ         0.00000   0.00000  -0.93108   0.00000   0.00000
  16       10PX         3.05252   0.00000   0.00000   2.25396   0.00000
  17       10PY         0.00000   2.25396   0.00000   0.00000   0.00000
  18       10PZ         0.00000   0.00000   2.25396   0.00000   0.00000
  19       11PX        -0.32424   0.00000   0.00000  -0.23267   0.00000
  20       11PY         0.00000  -0.23267   0.00000   0.00000   0.00000
  21       11PZ         0.00000   0.00000  -0.23267   0.00000   0.00000
  22       12D 0        0.00000   0.00000   0.00000   0.00000  -0.07140
  23       12D+1        0.00000  -0.03387   0.00000   0.00000   0.00000
  24       12D-1        0.01602   0.00000   0.00000  -0.03387   0.00000
  25       12D+2        0.00000   0.00000   0.00000   0.00000   0.29545
  26       12D-2        0.00000   0.00000  -0.03387   0.00000   0.00000
  27       13D 0        0.00000   0.00000   0.00000   0.00000   0.13456
  28       13D+1        0.00000   0.04584   0.00000   0.00000   0.00000
  29       13D-1        0.15366   0.00000   0.00000   0.04584   0.00000
  30       13D+2        0.00000   0.00000   0.00000   0.00000  -0.55678
  31       13D-2        0.00000   0.00000   0.04584   0.00000   0.00000
  32       14D 0        0.00000   0.00000   0.00000   0.00000  -0.28052
  33       14D+1        0.00000   0.41776   0.00000   0.00000   0.00000
  34       14D-1        0.86916   0.00000   0.00000   0.41776   0.00000
  35       14D+2        0.00000   0.00000   0.00000   0.00000   1.16076
  36       14D-2        0.00000   0.00000   0.41776   0.00000   0.00000
  37       15F 0        0.00000   0.00000  -0.47663   0.00000   0.00000
  38       15F+1        0.05925   0.00000   0.00000   0.29188   0.00000
  39       15F-1        0.00000   0.29188   0.00000   0.00000   0.00000
  40       15F+2        0.00000   0.00000   0.00000   0.00000   0.00000
  41       15F-2        0.00000   0.00000   0.00000   0.00000  -0.00000
  42       15F+3       -0.07649   0.00000   0.00000  -0.37681   0.00000
  43       15F-3        0.00000   0.37681   0.00000   0.00000   0.00000
  44       16F 0        0.00000   0.00000  -0.03714   0.00000   0.00000
  45       16F+1       -0.02030   0.00000   0.00000   0.02275   0.00000
  46       16F-1        0.00000   0.02275   0.00000   0.00000   0.00000
  47       16F+2        0.00000   0.00000   0.00000   0.00000   0.00000
  48       16F-2        0.00000   0.00000   0.00000   0.00000   0.00000
  49       16F+3        0.02620   0.00000   0.00000  -0.02936   0.00000
  50       16F-3        0.00000   0.02936   0.00000   0.00000   0.00000
  51 2   H  1S          0.03410  -0.01107  -0.01107  -0.01107  -0.00000
  52        2S         -0.22792  -0.50314  -0.50314  -0.50314   0.00000
  53        3S         -0.83975  -0.21495  -0.21495  -0.21495   0.00000
  54        4PX        -0.02245  -0.01112  -0.01112   0.03052   0.03438
  55        4PY        -0.00873   0.03052  -0.01112  -0.01112  -0.02596
  56        4PZ        -0.00873  -0.01112   0.03052  -0.01112  -0.00842
  57        5PX         0.32127   0.20314   0.20314  -0.35356  -0.51418
  58        5PY         0.18007  -0.35356   0.20314   0.20314   0.38827
  59        5PZ         0.18007   0.20314  -0.35356   0.20314   0.12592
  60        6D 0       -0.00202   0.00092  -0.00185   0.00092  -0.00283
  61        6D+1       -0.00542  -0.00753  -0.00521  -0.00521   0.00079
  62        6D-1       -0.00377  -0.00521  -0.00521  -0.00753  -0.00104
  63        6D+2        0.00349   0.00160  -0.00000  -0.00160   0.01171
  64        6D-2       -0.00542  -0.00521  -0.00753  -0.00521   0.00026
  65 3   H  1S         -0.03410   0.01107  -0.01107   0.01107  -0.00000
  66        2S          0.22792   0.50314  -0.50314   0.50314   0.00000
  67        3S          0.83975   0.21495  -0.21495   0.21495   0.00000
  68        4PX        -0.02245  -0.01112   0.01112   0.03052  -0.03438
  69        4PY        -0.00873   0.03052   0.01112  -0.01112   0.02596
  70        4PZ         0.00873   0.01112   0.03052   0.01112  -0.00842
  71        5PX         0.32127   0.20314  -0.20314  -0.35356   0.51418
  72        5PY         0.18007  -0.35356  -0.20314   0.20314  -0.38827
  73        5PZ        -0.18007  -0.20314  -0.35356  -0.20314   0.12592
  74        6D 0        0.00202  -0.00092  -0.00185  -0.00092  -0.00283
  75        6D+1       -0.00542  -0.00753   0.00521  -0.00521  -0.00079
  76        6D-1       -0.00377  -0.00521   0.00521  -0.00753   0.00104
  77        6D+2       -0.00349  -0.00160  -0.00000   0.00160   0.01171
  78        6D-2        0.00542   0.00521  -0.00753   0.00521   0.00026
  79 4   H  1S          0.03410   0.01107   0.01107  -0.01107  -0.00000
  80        2S         -0.22792   0.50314   0.50314  -0.50314   0.00000
  81        3S         -0.83975   0.21495   0.21495  -0.21495   0.00000
  82        4PX        -0.02245   0.01112   0.01112   0.03052   0.03438
  83        4PY         0.00873   0.03052  -0.01112   0.01112   0.02596
  84        4PZ         0.00873  -0.01112   0.03052   0.01112   0.00842
  85        5PX         0.32127  -0.20314  -0.20314  -0.35356  -0.51418
  86        5PY        -0.18007  -0.35356   0.20314  -0.20314  -0.38827
  87        5PZ        -0.18007   0.20314  -0.35356  -0.20314  -0.12592
  88        6D 0       -0.00202  -0.00092   0.00185   0.00092  -0.00283
  89        6D+1        0.00542  -0.00753  -0.00521   0.00521  -0.00079
  90        6D-1       -0.00377   0.00521   0.00521  -0.00753  -0.00104
  91        6D+2        0.00349  -0.00160   0.00000  -0.00160   0.01171
  92        6D-2        0.00542  -0.00521  -0.00753   0.00521  -0.00026
  93 5   H  1S         -0.03410  -0.01107   0.01107   0.01107  -0.00000
  94        2S          0.22792  -0.50314   0.50314   0.50314   0.00000
  95        3S          0.83975  -0.21495   0.21495   0.21495   0.00000
  96        4PX        -0.02245   0.01112  -0.01112   0.03052  -0.03438
  97        4PY         0.00873   0.03052   0.01112   0.01112  -0.02596
  98        4PZ        -0.00873   0.01112   0.03052  -0.01112   0.00842
  99        5PX         0.32127  -0.20314   0.20314  -0.35356   0.51418
 100        5PY        -0.18007  -0.35356  -0.20314  -0.20314   0.38827
 101        5PZ         0.18007  -0.20314  -0.35356   0.20314  -0.12592
 102        6D 0        0.00202   0.00092   0.00185  -0.00092  -0.00283
 103        6D+1        0.00542  -0.00753   0.00521   0.00521   0.00079
 104        6D-1       -0.00377   0.00521  -0.00521  -0.00753   0.00104
 105        6D+2       -0.00349   0.00160   0.00000   0.00160   0.01171
 106        6D-2       -0.00542   0.00521  -0.00753  -0.00521  -0.00026
                          41        42        43        44        45
                        (E)--V    (A1)--V   (T2)--V   (T2)--V   (T2)--V
     Eigenvalues --     1.10619   1.14927   1.21021   1.21021   1.21021
   1 1   Sn 1S         -0.00000  -0.04930   0.00000   0.00000   0.00000
   2        2S          0.00000   0.07740   0.00000   0.00000   0.00000
   3        3S          0.00000  -0.09818   0.00000   0.00000   0.00000
   4        4S         -0.00000   0.07163   0.00000   0.00000   0.00000
   5        5S          0.00000  -0.37201   0.00000   0.00000   0.00000
   6        6S          0.00000   0.27246   0.00000   0.00000   0.00000
   7        7PX         0.00000   0.00000   0.00000   0.00000  -0.03447
   8        7PY         0.00000   0.00000   0.00000  -0.03447   0.00000
   9        7PZ         0.00000   0.00000  -0.03447   0.00000   0.00000
  10        8PX         0.00000   0.00000   0.00000   0.00000  -0.26386
  11        8PY         0.00000   0.00000   0.00000  -0.26386   0.00000
  12        8PZ         0.00000   0.00000  -0.26386   0.00000   0.00000
  13        9PX         0.00000   0.00000   0.00000   0.00000   0.66982
  14        9PY         0.00000   0.00000   0.00000   0.66982   0.00000
  15        9PZ         0.00000   0.00000   0.66982   0.00000   0.00000
  16       10PX         0.00000   0.00000   0.00000   0.00000   1.37787
  17       10PY         0.00000   0.00000   0.00000   1.37787   0.00000
  18       10PZ         0.00000   0.00000   1.37787   0.00000   0.00000
  19       11PX         0.00000   0.00000   0.00000   0.00000   0.84156
  20       11PY         0.00000   0.00000   0.00000   0.84156   0.00000
  21       11PZ         0.00000   0.00000   0.84156   0.00000   0.00000
  22       12D 0        0.29545  -0.00000   0.00000   0.00000   0.00000
  23       12D+1        0.00000   0.00000   0.00000   0.42781   0.00000
  24       12D-1        0.00000   0.00000   0.00000   0.00000   0.42781
  25       12D+2        0.07140   0.00000   0.00000   0.00000   0.00000
  26       12D-2        0.00000   0.00000   0.42781   0.00000   0.00000
  27       13D 0       -0.55678   0.00000   0.00000   0.00000   0.00000
  28       13D+1        0.00000   0.00000   0.00000  -0.57151   0.00000
  29       13D-1        0.00000   0.00000   0.00000   0.00000  -0.57151
  30       13D+2       -0.13456  -0.00000   0.00000   0.00000   0.00000
  31       13D-2        0.00000   0.00000  -0.57151   0.00000   0.00000
  32       14D 0        1.16076  -0.00000   0.00000   0.00000   0.00000
  33       14D+1        0.00000   0.00000   0.00000   2.12174   0.00000
  34       14D-1        0.00000   0.00000   0.00000   0.00000   2.12174
  35       14D+2        0.28052   0.00000   0.00000   0.00000   0.00000
  36       14D-2        0.00000   0.00000   2.12174   0.00000   0.00000
  37       15F 0        0.00000   0.00000  -0.99272   0.00000   0.00000
  38       15F+1        0.00000   0.00000   0.00000   0.00000   0.60791
  39       15F-1        0.00000   0.00000   0.00000   0.60791   0.00000
  40       15F+2        0.00000   0.00000   0.00000   0.00000   0.00000
  41       15F-2        0.00000   1.09967   0.00000   0.00000   0.00000
  42       15F+3        0.00000   0.00000   0.00000   0.00000  -0.78481
  43       15F-3        0.00000   0.00000   0.00000   0.78481   0.00000
  44       16F 0        0.00000   0.00000  -0.03655   0.00000   0.00000
  45       16F+1        0.00000   0.00000   0.00000   0.00000   0.02238
  46       16F-1        0.00000   0.00000   0.00000   0.02238   0.00000
  47       16F+2        0.00000   0.00000   0.00000   0.00000   0.00000
  48       16F-2       -0.00000   0.09641   0.00000   0.00000   0.00000
  49       16F+3        0.00000   0.00000   0.00000   0.00000  -0.02890
  50       16F-3        0.00000   0.00000   0.00000   0.02890   0.00000
  51 2   H  1S          0.00000   0.05891   0.00793   0.00793   0.00793
  52        2S         -0.00000  -0.67120  -0.58607  -0.58607  -0.58607
  53        3S         -0.00000   0.31647  -1.24843  -1.24843  -1.24843
  54        4PX        -0.01013   0.01186  -0.00942  -0.00942  -0.03248
  55        4PY        -0.02471   0.01186  -0.00942  -0.03248  -0.00942
  56        4PZ         0.03484   0.01186  -0.03248  -0.00942  -0.00942
  57        5PX         0.15147  -0.10784   0.21978   0.21978   0.52374
  58        5PY         0.36956  -0.10784   0.21978   0.52374   0.21978
[...]
  21        6D-1        0.00000   0.00000   0.00000   0.00000   0.00000
  22        6D+2       -0.00000   0.00000   0.00000   0.00000  -0.00000
  23        6D-2        0.00000   0.00000   0.00000   0.00000   0.00000
  24        7S          0.00001   0.00000   0.00000   0.00000   0.00000
  25        7PX         0.00000  -0.00008   0.00000   0.00000   0.00000
  26        7PY         0.00000   0.00000  -0.00008   0.00000   0.00000
  27        7PZ         0.00000   0.00000   0.00000  -0.00008   0.00000
  28 2   H  1S         -0.00023  -0.00001  -0.00001  -0.00001   0.00000
  29 3   H  1S         -0.00023  -0.00001  -0.00001  -0.00001  -0.00000
  30 4   H  1S         -0.00023  -0.00001  -0.00001  -0.00001   0.00000
  31 5   H  1S         -0.00023  -0.00001  -0.00001  -0.00001   0.00000
                          11        12        13        14        15
  11        4D+1        0.00613
  12        4D-1        0.00000   0.00613
  13        4D+2        0.00000   0.00000   0.00643
  14        4D-2        0.00000   0.00000   0.00000   0.00613
  15        5S          0.00000   0.00000  -0.00000   0.00000   2.11530
  16        5PX         0.00000   0.00000   0.00000   0.00000   0.00000
  17        5PY         0.00000   0.00000   0.00000   0.00000   0.00000
  18        5PZ         0.00000   0.00000   0.00000   0.00000   0.00000
  19        6D 0        0.00000   0.00000   0.00000   0.00000   0.00000
  20        6D+1       -0.03470   0.00000   0.00000   0.00000   0.00000
  21        6D-1        0.00000  -0.03470   0.00000   0.00000   0.00000
  22        6D+2        0.00000   0.00000  -0.03597   0.00000   0.00000
  23        6D-2        0.00000   0.00000   0.00000  -0.03470   0.00000
  24        7S          0.00000   0.00000   0.00000   0.00000  -0.11534
  25        7PX         0.00000   0.00000   0.00000   0.00000   0.00000
  26        7PY         0.00000   0.00000   0.00000   0.00000   0.00000
  27        7PZ         0.00000   0.00000   0.00000   0.00000   0.00000
  28 2   H  1S         -0.00000  -0.00000   0.00000  -0.00000  -0.00339
  29 3   H  1S         -0.00000  -0.00000   0.00000  -0.00000  -0.00339
  30 4   H  1S         -0.00000  -0.00000  -0.00000  -0.00000  -0.00339
  31 5   H  1S         -0.00000  -0.00000  -0.00000  -0.00000  -0.00339
                          16        17        18        19        20
  16        5PX         2.09785
  17        5PY         0.00000   2.09785
  18        5PZ         0.00000   0.00000   2.09785
  19        6D 0        0.00000   0.00000   0.00000   2.06552
  20        6D+1        0.00000   0.00000   0.00000   0.00000   2.03833
  21        6D-1        0.00000   0.00000   0.00000   0.00000   0.00000
  22        6D+2        0.00000   0.00000   0.00000  -0.00000   0.00000
  23        6D-2        0.00000   0.00000   0.00000   0.00000   0.00000
  24        7S          0.00000   0.00000   0.00000   0.00000   0.00000
  25        7PX        -0.04713   0.00000   0.00000   0.00000   0.00000
  26        7PY         0.00000  -0.04713   0.00000   0.00000   0.00000
  27        7PZ         0.00000   0.00000  -0.04713   0.00000   0.00000
  28 2   H  1S         -0.00414  -0.00414  -0.00414   0.00000   0.00121
  29 3   H  1S         -0.00414  -0.00414  -0.00414   0.00000   0.00121
  30 4   H  1S         -0.00414  -0.00414  -0.00414   0.00000   0.00121
  31 5   H  1S         -0.00414  -0.00414  -0.00414  -0.00000   0.00121
                          21        22        23        24        25
  21        6D-1        2.03833
  22        6D+2        0.00000   2.06552
  23        6D-2        0.00000   0.00000   2.03833
  24        7S          0.00000  -0.00000   0.00000   1.01527
  25        7PX         0.00000   0.00000   0.00000   0.00000   0.43272
  26        7PY         0.00000   0.00000   0.00000   0.00000   0.00000
  27        7PZ         0.00000   0.00000   0.00000   0.00000   0.00000
  28 2   H  1S          0.00121   0.00000   0.00121   0.09622   0.08345
  29 3   H  1S          0.00121  -0.00000   0.00121   0.09622   0.08345
  30 4   H  1S          0.00121   0.00000   0.00121   0.09622   0.08345
  31 5   H  1S          0.00121   0.00000   0.00121   0.09622   0.08345
                          26        27        28        29        30
  26        7PY         0.43272
  27        7PZ         0.00000   0.43272
  28 2   H  1S          0.08345   0.08345   0.82973
  29 3   H  1S          0.08345   0.08345  -0.00494   0.82973
  30 4   H  1S          0.08345   0.08345  -0.00494  -0.00494   0.82973
  31 5   H  1S          0.08345   0.08345  -0.00494  -0.00494  -0.00494
                          31
  31 5   H  1S          0.82973
     MBS Gross orbital populations:
                         Total     Alpha     Beta      Spin
   1 1   Sn 1S          0.00006   0.00003   0.00003   0.00000
   2        2S         -0.00091  -0.00045  -0.00045   0.00000
   3        2PX        -0.00018  -0.00009  -0.00009   0.00000
   4        2PY        -0.00018  -0.00009  -0.00009   0.00000
   5        2PZ        -0.00018  -0.00009  -0.00009   0.00000
   6        3S          0.01649   0.00825   0.00825   0.00000
   7        3PX        -0.01498  -0.00749  -0.00749   0.00000
   8        3PY        -0.01498  -0.00749  -0.00749   0.00000
   9        3PZ        -0.01498  -0.00749  -0.00749   0.00000
  10        4D 0       -0.02954  -0.01477  -0.01477   0.00000
  11        4D+1       -0.02858  -0.01429  -0.01429   0.00000
  12        4D-1       -0.02858  -0.01429  -0.01429   0.00000
  13        4D+2       -0.02954  -0.01477  -0.01477   0.00000
  14        4D-2       -0.02858  -0.01429  -0.01429   0.00000
  15        5S          1.99955   0.99978   0.99978   0.00000
  16        5PX         2.01732   1.00866   1.00866   0.00000
  17        5PY         2.01732   1.00866   1.00866   0.00000
  18        5PZ         2.01732   1.00866   1.00866   0.00000
  19        6D 0        2.02954   1.01477   1.01477   0.00000
  20        6D+1        2.00847   1.00423   1.00423   0.00000
  21        6D-1        2.00847   1.00423   1.00423   0.00000
  22        6D+2        2.02954   1.01477   1.01477   0.00000
  23        6D-2        2.00847   1.00423   1.00423   0.00000
  24        7S          1.28468   0.64234   0.64234   0.00000
  25        7PX         0.71929   0.35964   0.35964   0.00000
  26        7PY         0.71929   0.35964   0.35964   0.00000
  27        7PZ         0.71929   0.35964   0.35964   0.00000
  28 2   H  1S          1.14903   0.57452   0.57452   0.00000
  29 3   H  1S          1.14903   0.57452   0.57452   0.00000
  30 4   H  1S          1.14903   0.57452   0.57452   0.00000
  31 5   H  1S          1.14903   0.57452   0.57452   0.00000
          MBS Condensed to atoms (all electrons):
               1          2          3          4          5
     1  Sn  20.067322   0.334135   0.334135   0.334135   0.334135
     2  H    0.334135   0.829727  -0.004943  -0.004943  -0.004943
     3  H    0.334135  -0.004943   0.829727  -0.004943  -0.004943
     4  H    0.334135  -0.004943  -0.004943   0.829727  -0.004943
     5  H    0.334135  -0.004943  -0.004943  -0.004943   0.829727
          MBS Atomic-Atomic Spin Densities.
               1          2          3          4          5
     1  Sn   0.000000   0.000000   0.000000   0.000000   0.000000
     2  H    0.000000   0.000000   0.000000   0.000000   0.000000
     3  H    0.000000   0.000000   0.000000   0.000000   0.000000
     4  H    0.000000   0.000000   0.000000   0.000000   0.000000
     5  H    0.000000   0.000000   0.000000   0.000000   0.000000
 MBS Mulliken charges and spin densities:
               1          2
     1  Sn   0.596136   0.000000
     2  H   -0.149034   0.000000
     3  H   -0.149034   0.000000
     4  H   -0.149034   0.000000
     5  H   -0.149034   0.000000
 Sum of MBS Mulliken charges =   0.00000   0.00000
 MBS Mulliken charges and spin densities with hydrogens summed into heavy atoms:
               1          2
     1  Sn   0.000000   0.000000
 MBS Atomic Valencies and Mayer Atomic Bond Orders:
               1          2          3          4          5
     1  Sn   3.642451   0.910613   0.910613   0.910613   0.910613
     2  H    0.910613   0.977789   0.022392   0.022392   0.022392
     3  H    0.910613   0.022392   0.977789   0.022392   0.022392
     4  H    0.910613   0.022392   0.022392   0.977789   0.022392
     5  H    0.910613   0.022392   0.022392   0.022392   0.977789
 MBS Mayer-style numbers of lone pairs (13.000 valence pairs, 9.223 lone pairs):
               1
     1  Sn   8.880706
     2  H    0.085623
     3  H    0.085623
     4  H    0.085623
     5  H    0.085623
 BEBO parameters in MulMin, MxElBE=  0:
 ELP= 0.229576218481E-30 EBEBO= 0.468369544525E-03 Sum= 0.468369544525E-03
 ELP= 0.229576218481E-30 EBEBO= 0.468369544525E-03 EJK= 0.468369544525E-03  0.00000000000     Sum= 0.468369544525E-03
 0 EA= 0.234184772263E-03 EB= 0.234184772263E-03 ETot= 0.468369544525E-03
 1 EA= 0.234184772263E-03 EB= 0.234184772263E-03 ETot= 0.468369544525E-03
 2 EA= 0.234184772263E-03 EB= 0.234184772263E-03 ETot= 0.468369544525E-03
 3 EJ= 0.468369544525E-03 EK=  0.00000000000     ETot= 0.468369544525E-03
 4 EJ= 0.468369544525E-03 EK=  0.00000000000     ETot= 0.468369544525E-03
 5 EA= 0.234184772263E-03 EB= 0.234184772263E-03 ETot= 0.468369544525E-03
 Orbital energies and kinetic energies (alpha):
                                 1                 2
   1         (A1)--O          -5.859123          2.559673
   2         (T2)--O          -4.048246          3.751526
   3         (T2)--O          -4.048246          3.751526
   4         (T2)--O          -4.048246          3.751526
   5         (T2)--O          -1.317577          5.164024
   6         (T2)--O          -1.317577          5.164024
   7         (T2)--O          -1.317577          5.164024
   8         (E)--O           -1.311042          5.227721
   9         (E)--O           -1.311042          5.227721
  10         (A1)--O          -0.679114          0.618050
  11         (T2)--O          -0.447107          0.698152
  12         (T2)--O          -0.447107          0.698152
  13         (T2)--O          -0.447107          0.698152
  14         (T2)--V           0.105515          0.273050
  15         (T2)--V           0.105515          0.273050
  16         (T2)--V           0.105515          0.273050
  17         (A1)--V           0.147487          0.656297
  18         (T2)--V           0.197372          0.533221
  19         (T2)--V           0.197372          0.533221
  20         (T2)--V           0.197372          0.533221
  21         (E)--V            0.276669          0.596919
  22         (E)--V            0.276669          0.596919
  23         (A1)--V           0.334139          0.634638
  24         (T2)--V           0.390170          0.668013
  25         (T2)--V           0.390170          0.668013
  26         (T2)--V           0.390170          0.668013
  27         (A1)--V           0.505222          1.075385
  28         (T2)--V           0.581787          0.913941
  29         (T2)--V           0.581787          0.913941
  30         (T2)--V           0.581787          0.913941
  31         (T1)--V           0.724223          1.036576
  32         (T1)--V           0.724223          1.036576
  33         (T1)--V           0.724223          1.036576
  34         (T2)--V           0.825622          1.708856
  35         (T2)--V           0.825622          1.708856
  36         (T2)--V           0.825622          1.708856
  37         (T2)--V           0.959969          1.260772
  38         (T2)--V           0.959969          1.260772
  39         (T2)--V           0.959969          1.260772
  40         (E)--V            1.106194          1.608377
  41         (E)--V            1.106194          1.608377
  42         (A1)--V           1.149270          1.661045
  43         (T2)--V           1.210212          2.292599
  44         (T2)--V           1.210212          2.292599
  45         (T2)--V           1.210212          2.292599
  46         (T1)--V           1.288248          1.728234
  47         (T1)--V           1.288248          1.728234
  48         (T1)--V           1.288248          1.728234
  49         (T2)--V           1.292849          1.850880
  50         (T2)--V           1.292849          1.850880
  51         (T2)--V           1.292849          1.850880
  52         (E)--V            1.405231          3.167783
  53         (E)--V            1.405231          3.167783
  54         (A1)--V           1.505634          2.159621
  55         (T2)--V           1.927065          3.637373
  56         (T2)--V           1.927065          3.637373
  57         (T2)--V           1.927065          3.637373
  58         (A1)--V           2.479136          4.513837
  59         (T2)--V           2.647894          4.695500
  60         (T2)--V           2.647894          4.695500
  61         (T2)--V           2.647894          4.695500
  62         (T1)--V           2.673445          4.879936
  63         (T1)--V           2.673445          4.879936
  64         (T1)--V           2.673445          4.879936
  65         (A1)--V           2.804599          4.047043
  66         (T2)--V           2.989648          4.253905
  67         (T2)--V           2.989648          4.253905
  68         (T2)--V           2.989648          4.253905
  69         (T1)--V           3.463901          3.768163
  70         (T1)--V           3.463901          3.768163
  71         (T1)--V           3.463901          3.768163
  72         (E)--V            3.464429          3.715118
  73         (E)--V            3.464429          3.715118
  74         (T2)--V           3.576964          3.889337
  75         (T2)--V           3.576964          3.889337
  76         (T2)--V           3.576964          3.889337
  77         (T2)--V           3.727029          4.168694
  78         (T2)--V           3.727029          4.168694
  79         (T2)--V           3.727029          4.168694
  80         (E)--V            3.728428          4.194894
  81         (E)--V            3.728428          4.194894
  82         (T1)--V           3.812337          4.238630
  83         (T1)--V           3.812337          4.238630
  84         (T1)--V           3.812337          4.238630
  85         (A1)--V           3.826414          5.744100
  86         (T2)--V           4.083645          4.718332
  87         (T2)--V           4.083645          4.718332
  88         (T2)--V           4.083645          4.718332
  89         (T1)--V           4.116464          4.531032
  90         (T1)--V           4.116464          4.531032
  91         (T1)--V           4.116464          4.531032
  92         (E)--V            4.285142          4.784630
  93         (E)--V            4.285142          4.784630
  94         (T2)--V           4.334408          4.958243
  95         (T2)--V           4.334408          4.958243
  96         (T2)--V           4.334408          4.958243
  97         (A1)--V           4.336923          5.852450
  98         (T2)--V           4.854818          5.680833
  99         (T2)--V           4.854818          5.680833
 100         (T2)--V           4.854818          5.680833
 101         (A1)--V           5.001707          6.026976
 102         (A1)--V          37.361095         25.191600
 103         (T2)--V          37.761281         24.799500
 104         (T2)--V          37.761281         24.799500
 105         (T2)--V          37.761281         24.799500
 106         (A1)--V         114.218741         41.213398
 Total kinetic energy from orbitals= 8.494854072345D+01
                          Isotropic Fermi Contact Couplings
        Atom                 a.u.       MegaHertz       Gauss      10(-4) cm-1
     1  Sn(117             0.00000      -0.00000      -0.00000      -0.00000
     2  H(1)               0.00000       0.00000       0.00000       0.00000
     3  H(1)               0.00000       0.00000       0.00000       0.00000
     4  H(1)               0.00000       0.00000       0.00000       0.00000
     5  H(1)               0.00000       0.00000       0.00000       0.00000
 --------------------------------------------------------
       Center         ----  Spin Dipole Couplings  ----
                      3XX-RR        3YY-RR        3ZZ-RR
 --------------------------------------------------------
     1   Atom        0.000000      0.000000      0.000000
     2   Atom        0.000000      0.000000      0.000000
     3   Atom        0.000000      0.000000      0.000000
     4   Atom        0.000000      0.000000      0.000000
     5   Atom        0.000000      0.000000      0.000000
 --------------------------------------------------------
                        XY            XZ            YZ
 --------------------------------------------------------
     1   Atom        0.000000      0.000000      0.000000
     2   Atom        0.000000      0.000000      0.000000
     3   Atom        0.000000      0.000000      0.000000
     4   Atom        0.000000      0.000000      0.000000
     5   Atom        0.000000      0.000000      0.000000
 --------------------------------------------------------


 ---------------------------------------------------------------------------------
              Anisotropic Spin Dipole Couplings in Principal Axis System
 ---------------------------------------------------------------------------------

       Atom             a.u.   MegaHertz   Gauss  10(-4) cm-1        Axes

              Baa     0.0000    -0.000    -0.000    -0.000  1.0000  0.0000  0.0000
     1 Sn(117 Bbb     0.0000    -0.000    -0.000    -0.000 -0.0000  1.0000  0.0000
              Bcc     0.0000    -0.000    -0.000    -0.000  0.0000  0.0000  1.0000
 
              Baa     0.0000     0.000     0.000     0.000  1.0000  0.0000  0.0000
     2 H(1)   Bbb     0.0000     0.000     0.000     0.000 -0.0000  1.0000  0.0000
              Bcc     0.0000     0.000     0.000     0.000  0.0000  0.0000  1.0000
 
              Baa     0.0000     0.000     0.000     0.000  1.0000  0.0000  0.0000
     3 H(1)   Bbb     0.0000     0.000     0.000     0.000 -0.0000  1.0000  0.0000
              Bcc     0.0000     0.000     0.000     0.000  0.0000  0.0000  1.0000
 
              Baa     0.0000     0.000     0.000     0.000  1.0000  0.0000  0.0000
     4 H(1)   Bbb     0.0000     0.000     0.000     0.000 -0.0000  1.0000  0.0000
              Bcc     0.0000     0.000     0.000     0.000  0.0000  0.0000  1.0000
 
              Baa     0.0000     0.000     0.000     0.000  1.0000  0.0000  0.0000
     5 H(1)   Bbb     0.0000     0.000     0.000     0.000 -0.0000  1.0000  0.0000
              Bcc     0.0000     0.000     0.000     0.000  0.0000  0.0000  1.0000
 

 ---------------------------------------------------------------------------------


 Test job not archived.
 1\1\GINC-SMP-N228\SP\ROHF\def2TZVPP\H4Sn1\BLZ11\19-Dec-2025\0\\# SP RO
 HF/Def2TZVPP scf=tight Pop=(Full) IOp(6/27=122,6/12=3)\\SnH4\\0,1\Sn,0
 ,0.,0.,0.\H,0,0.986206,0.986206,0.986206\H,0,0.986206,-0.986206,-0.986
 206\H,0,-0.986206,0.986206,-0.986206\H,0,-0.986206,-0.986206,0.986206\
 \Version=ES64L-G16RevC.01\State=1-A1\HF=-215.6443335\RMSD=1.474e-09\Di
 pole=0.,0.,0.\Quadrupole=0.,0.,0.,0.,0.,0.\PG=TD [O(Sn1),4C3(H1)]\\@


 ADAM SMITH SAID, "THE REAL PRICE OF ANYTHING IS THE TOIL AND TROUBLE
 OF ACQUIRING IT."  BUT IN ALL UNDERTAKINGS WITH NATURE WE SHOULD FIRST
 READ CAREFULLY THE SMALL PRINT IN THE CONTRACT. THIS MIGHT DISCLOSE
 THAT THE REAL PRICE IS TO BE PAID BY THOSE WHO INHERIT THE DEPLETION
 AND DESPOILATION THAT FOLLOWS.
                               -- E. R. HARRISON IN "COSMOLOGY" (1980)
 Job cpu time:       0 days  0 hours  0 minutes  1.2 seconds.
 Elapsed time:       0 days  0 hours  0 minutes  1.5 seconds.
 File lengths (MBytes):  RWF=     10 Int=      0 D2E=      0 Chk=      2 Scr=      1
 Normal termination of Gaussian 16 at Fri Dec 19 17:20:04 2025.
/var/spool/slurmd/job21801759/slurm_script: line 22: crc-job-stats.py: command not found
