 Entering Gaussian System, Link 0=g16
 Initial command:
 /ihome/crc/install/gaussian/c01/avx2/tar/g16/l1.exe "/scratch/slurm-18106891/Gau-21593.inp" -scrdir="/scratch/slurm-18106891/"
 Entering Link 1 = /ihome/crc/install/gaussian/c01/avx2/tar/g16/l1.exe PID=     21594.
  
 Copyright (c) 1988-2019, Gaussian, Inc.  All Rights Reserved.
  
 This is part of the Gaussian(R) 16 program.  It is based on
 the Gaussian(R) 09 system (copyright 2009, Gaussian, Inc.),
 the Gaussian(R) 03 system (copyright 2003, Gaussian, Inc.),
 the Gaussian(R) 98 system (copyright 1998, Gaussian, Inc.),
 the Gaussian(R) 94 system (copyright 1995, Gaussian, Inc.),
 the Gaussian 92(TM) system (copyright 1992, Gaussian, Inc.),
 the Gaussian 90(TM) system (copyright 1990, Gaussian, Inc.),
 the Gaussian 88(TM) system (copyright 1988, Gaussian, Inc.),
 the Gaussian 86(TM) system (copyright 1986, Carnegie Mellon
 University), and the Gaussian 82(TM) system (copyright 1983,
 Carnegie Mellon University). Gaussian is a federally registered
 trademark of Gaussian, Inc.
  
 This software contains proprietary and confidential information,
 including trade secrets, belonging to Gaussian, Inc.
  
 This software is provided under written license and may be
 used, copied, transmitted, or stored only in accord with that
 written license.
  
 The following legend is applicable only to US Government
 contracts under FAR:
  
                    RESTRICTED RIGHTS LEGEND
  
 Use, reproduction and disclosure by the US Government is
 subject to restrictions as set forth in subparagraphs (a)
 and (c) of the Commercial Computer Software - Restricted
 Rights clause in FAR 52.227-19.
  
 Gaussian, Inc.
 340 Quinnipiac St., Bldg. 40, Wallingford CT 06492
  
  
 ---------------------------------------------------------------
 Warning -- This program may not be used in any manner that
 competes with the business of Gaussian, Inc. or will provide
 assistance to any competitor of Gaussian, Inc.  The licensee
 of this program is prohibited from giving any competitor of
 Gaussian, Inc. access to this program.  By using this program,
 the user acknowledges that Gaussian, Inc. is engaged in the
 business of creating and licensing software in the field of
 computational chemistry and represents and warrants to the
 licensee that it is not a competitor of Gaussian, Inc. and that
 it will not use this program in any manner prohibited above.
 ---------------------------------------------------------------
  

 Cite this work as:
 Gaussian 16, Revision C.01,
 M. J. Frisch, G. W. Trucks, H. B. Schlegel, G. E. Scuseria, 
 M. A. Robb, J. R. Cheeseman, G. Scalmani, V. Barone, 
 G. A. Petersson, H. Nakatsuji, X. Li, M. Caricato, A. V. Marenich, 
 J. Bloino, B. G. Janesko, R. Gomperts, B. Mennucci, H. P. Hratchian, 
 J. V. Ortiz, A. F. Izmaylov, J. L. Sonnenberg, D. Williams-Young, 
 F. Ding, F. Lipparini, F. Egidi, J. Goings, B. Peng, A. Petrone, 
 T. Henderson, D. Ranasinghe, V. G. Zakrzewski, J. Gao, N. Rega, 
 G. Zheng, W. Liang, M. Hada, M. Ehara, K. Toyota, R. Fukuda, 
 J. Hasegawa, M. Ishida, T. Nakajima, Y. Honda, O. Kitao, H. Nakai, 
 T. Vreven, K. Throssell, J. A. Montgomery, Jr., J. E. Peralta, 
 F. Ogliaro, M. J. Bearpark, J. J. Heyd, E. N. Brothers, K. N. Kudin, 
 V. N. Staroverov, T. A. Keith, R. Kobayashi, J. Normand, 
 K. Raghavachari, A. P. Rendell, J. C. Burant, S. S. Iyengar, 
 J. Tomasi, M. Cossi, J. M. Millam, M. Klene, C. Adamo, R. Cammi, 
 J. W. Ochterski, R. L. Martin, K. Morokuma, O. Farkas, 
 J. B. Foresman, and D. J. Fox, Gaussian, Inc., Wallingford CT, 2019.
 
 ******************************************
 Gaussian 16:  ES64L-G16RevC.01  3-Jul-2019
                26-Feb-2025 
 ******************************************
 ---------------------------------------------------
 # SP UHF/cc-pVDZ Pop=(Full) scf=tight IOp(6/27=122)
 ---------------------------------------------------
 1/38=1,172=1/1;
 2/12=2,17=6,18=5,40=1/2;
 3/5=16,11=2,25=1,30=1,116=2/1,2,3;
 4//1;
 5/5=2,32=2,38=5/2;
 6/7=3,27=122,28=1/1;
 99/5=1,9=1/99;
 ----
 TiO2
 ----
 Symbolic Z-matrix:
 Charge =  0 Multiplicity = 1
 Ti                    0.        0.        0.40163 
 O                     0.        1.35944  -0.51667 
 O                     0.       -1.35944  -0.51667 
 
                          Input orientation:                          
 ---------------------------------------------------------------------
 Center     Atomic      Atomic             Coordinates (Angstroms)
 Number     Number       Type             X           Y           Z
 ---------------------------------------------------------------------
      1         22           0        0.000000    0.000000    0.401628
      2          8           0        0.000000    1.359439   -0.516671
      3          8           0        0.000000   -1.359439   -0.516671
 ---------------------------------------------------------------------
                    Distance matrix (angstroms):
                    1          2          3
     1  Ti   0.000000
     2  O    1.640533   0.000000
     3  O    1.640533   2.718878   0.000000
 Stoichiometry    O2Ti
 Framework group  C2V[C2(Ti),SGV(O2)]
 Deg. of freedom     2
 Full point group                 C2V     NOp   4
 Largest Abelian subgroup         C2V     NOp   4
 Largest concise Abelian subgroup C2      NOp   2
                         Standard orientation:                         
 ---------------------------------------------------------------------
 Center     Atomic      Atomic             Coordinates (Angstroms)
 Number     Number       Type             X           Y           Z
 ---------------------------------------------------------------------
      1         22           0        0.000000   -0.000000    0.386652
      2          8           0        0.000000    1.359439   -0.531647
      3          8           0       -0.000000   -1.359439   -0.531647
 ---------------------------------------------------------------------
 Rotational constants (GHZ):          31.2333884           8.5484195           6.7115126
 Standard basis: CC-pVDZ (5D, 7F)
 There are    34 symmetry adapted cartesian basis functions of A1  symmetry.
 There are     8 symmetry adapted cartesian basis functions of A2  symmetry.
 There are    15 symmetry adapted cartesian basis functions of B1  symmetry.
 There are    22 symmetry adapted cartesian basis functions of B2  symmetry.
 There are    29 symmetry adapted basis functions of A1  symmetry.
 There are     8 symmetry adapted basis functions of A2  symmetry.
 There are    14 symmetry adapted basis functions of B1  symmetry.
 There are    20 symmetry adapted basis functions of B2  symmetry.
    71 basis functions,   357 primitive gaussians,    79 cartesian basis functions
    19 alpha electrons       19 beta electrons
       nuclear repulsion energy       125.9989870249 Hartrees.
 NAtoms=    3 NActive=    3 NUniq=    2 SFac= 2.25D+00 NAtFMM=   60 NAOKFM=F Big=F
 Integral buffers will be    131072 words long.
 Raffenetti 2 integral format.
 Two-electron integral symmetry is turned on.
 One-electron integrals computed using PRISM.
 NBasis=    71 RedAO= T EigKep=  3.07D-03  NBF=    29     8    14    20
 NBsUse=    71 1.00D-06 EigRej= -1.00D+00 NBFU=    29     8    14    20
 ExpMin= 2.55D-02 ExpMax= 3.01D+06 ExpMxC= 3.43D+03 IAcc=3 IRadAn=         5 AccDes= 0.00D+00
 Harris functional with IExCor=  205 and IRadAn=       5 diagonalized for initial guess.
 HarFok:  IExCor=  205 AccDes= 0.00D+00 IRadAn=         5 IDoV= 1 UseB2=F ITyADJ=14
 ICtDFT=  3500011 ScaDFX=  1.000000  1.000000  1.000000  1.000000
 FoFCou: FMM=F IPFlag=           0 FMFlag=      100000 FMFlg1=           0
         NFxFlg=           0 DoJE=T BraDBF=F KetDBF=T FulRan=T
         wScrn=  0.000000 ICntrl=       500 IOpCl=  0 I1Cent=   200000004 NGrid=           0
         NMat0=    1 NMatS0=      1 NMatT0=    0 NMatD0=    1 NMtDS0=    0 NMtDT0=    0
 Petite list used in FoFCou.
 Initial guess orbital symmetries:
 Alpha Orbitals:
       Occupied  (A1) (A1) (A1) (B2) (B2) (A1) (B1) (A1) (B2) (A1)
                 (B1) (A1) (B2) (A1) (B2) (A2) (B1) (A1) (B2)
       Virtual   (A1) (B1) (A1) (A2) (B2) (A1) (B1) (A1) (B2) (A1)
                 (B1) (A2) (A1) (A1) (B2) (B1) (A1) (B2) (A1) (B1)
                 (A1) (A2) (B2) (A1) (A1) (B2) (B1) (B2) (A2) (B1)
                 (A1) (B1) (A1) (B1) (B2) (A2) (A1) (B2) (B2) (A1)
                 (A1) (B2) (A2) (B2) (A1) (B1) (B2) (A1) (B1) (A2)
                 (B2) (A1)
 Beta  Orbitals:
       Occupied  (A1) (A1) (A1) (B2) (B2) (A1) (B1) (A1) (B2) (A1)
                 (B1) (A1) (B2) (A1) (B2) (A2) (B1) (A1) (B2)
       Virtual   (A1) (B1) (A1) (A2) (B2) (A1) (B1) (A1) (B2) (A1)
                 (B1) (A2) (A1) (A1) (B2) (B1) (A1) (B2) (A1) (B1)
                 (A1) (A2) (B2) (A1) (A1) (B2) (B1) (B2) (A2) (B1)
                 (A1) (B1) (A1) (B1) (B2) (A2) (A1) (B2) (B2) (A1)
                 (A1) (B2) (A2) (B2) (A1) (B1) (B2) (A1) (B1) (A2)
                 (B2) (A1)
 The electronic state of the initial guess is 1-A1.
 Initial guess <Sx>= 0.0000 <Sy>= 0.0000 <Sz>= 0.0000 <S**2>=-0.0000 S=-0.0000
 Keep R1 and R2 ints in memory in symmetry-blocked form, NReq=6419860.
 Requested convergence on RMS density matrix=1.00D-08 within 128 cycles.
 Requested convergence on MAX density matrix=1.00D-06.
 Requested convergence on             energy=1.00D-06.
 No special actions if energy rises.
 SCF Done:  E(UHF) =  -998.128756278     A.U. after   16 cycles
            NFock= 16  Conv=0.66D-08     -V/T= 2.0008
 <Sx>= 0.0000 <Sy>= 0.0000 <Sz>= 0.0000 <S**2>=-0.0000 S=-0.0000
 <L.S>=  0.00000000000    
 Annihilation of the first spin contaminant:
 S**2 before annihilation    -0.0000,   after     0.0000

 **********************************************************************

            Population analysis using the SCF Density.

 **********************************************************************

 Orbital symmetries:
 Alpha Orbitals:
       Occupied  (A1) (A1) (A1) (B2) (A1) (B2) (B1) (A1) (B2) (A1)
                 (B1) (A1) (B2) (A1) (B2) (A2) (B1) (A1) (B2)
       Virtual   (A1) (B1) (A1) (B2) (A1) (B1) (A1) (B2) (A2) (B1)
                 (A2) (A1) (A1) (B2) (B1) (A1) (A1) (B2) (A1) (A1)
                 (B1) (B2) (A2) (A1) (B1) (A1) (B2) (B1) (A1) (B1)
                 (A2) (B2) (B2) (B1) (A1) (A2) (A1) (B2) (B2) (A1)
                 (A1) (B2) (A2) (B2) (A1) (B1) (B2) (A1) (B1) (A2)
                 (B2) (A1)
 Beta  Orbitals:
       Occupied  (A1) (A1) (A1) (B2) (A1) (B2) (B1) (A1) (B2) (A1)
                 (B1) (A1) (B2) (A1) (B2) (A2) (B1) (A1) (B2)
       Virtual   (A1) (B1) (A1) (B2) (A1) (B1) (A1) (B2) (A2) (B1)
                 (A2) (A1) (A1) (B2) (B1) (A1) (A1) (B2) (A1) (A1)
                 (B1) (B2) (A2) (A1) (B1) (A1) (B2) (B1) (A1) (B1)
                 (A2) (B2) (B2) (B1) (A1) (A2) (A1) (B2) (B2) (A1)
                 (A1) (B2) (A2) (B2) (A1) (B1) (B2) (A1) (B1) (A2)
                 (B2) (A1)
 The electronic state is 1-A1.
 Alpha  occ. eigenvalues -- -183.43264 -21.59341 -20.51961 -20.51961 -17.96251
 Alpha  occ. eigenvalues --  -17.96144 -17.96082  -2.99162  -1.93754  -1.92341
 Alpha  occ. eigenvalues --   -1.90778  -1.17658  -1.15803  -0.51257  -0.49531
 Alpha  occ. eigenvalues --   -0.46139  -0.43880  -0.43803  -0.41075
 Alpha virt. eigenvalues --   -0.04458   0.01640   0.04333   0.06442   0.09230
 Alpha virt. eigenvalues --    0.10624   0.11102   0.13680   0.15471   0.17773
 Alpha virt. eigenvalues --    0.17874   0.18177   0.20482   0.24803   0.25939
 Alpha virt. eigenvalues --    0.26004   0.38992   0.40796   0.71277   0.81515
 Alpha virt. eigenvalues --    0.82889   0.83679   0.85472   0.91798   0.95148
 Alpha virt. eigenvalues --    0.99959   1.04622   1.18382   1.22859   1.34833
 Alpha virt. eigenvalues --    1.36965   1.38462   1.47014   1.48260   1.48738
 Alpha virt. eigenvalues --    1.48799   1.54526   1.68304   1.91536   2.15625
 Alpha virt. eigenvalues --    2.44068   2.57206   3.01968   3.04316   3.06061
 Alpha virt. eigenvalues --    3.10747   3.11315   3.28703   3.31414   3.39926
 Alpha virt. eigenvalues --    3.51161   3.52678
  Beta  occ. eigenvalues -- -183.43264 -21.59341 -20.51961 -20.51961 -17.96251
  Beta  occ. eigenvalues --  -17.96144 -17.96082  -2.99162  -1.93754  -1.92341
  Beta  occ. eigenvalues --   -1.90778  -1.17658  -1.15803  -0.51257  -0.49531
  Beta  occ. eigenvalues --   -0.46139  -0.43880  -0.43803  -0.41075
  Beta virt. eigenvalues --   -0.04458   0.01640   0.04333   0.06442   0.09230
  Beta virt. eigenvalues --    0.10624   0.11102   0.13680   0.15471   0.17773
  Beta virt. eigenvalues --    0.17874   0.18177   0.20482   0.24803   0.25939
  Beta virt. eigenvalues --    0.26004   0.38992   0.40796   0.71277   0.81515
  Beta virt. eigenvalues --    0.82889   0.83679   0.85472   0.91798   0.95148
  Beta virt. eigenvalues --    0.99959   1.04622   1.18382   1.22859   1.34833
  Beta virt. eigenvalues --    1.36965   1.38462   1.47014   1.48260   1.48738
  Beta virt. eigenvalues --    1.48799   1.54526   1.68304   1.91536   2.15625
  Beta virt. eigenvalues --    2.44068   2.57206   3.01968   3.04316   3.06061
  Beta virt. eigenvalues --    3.10747   3.11315   3.28703   3.31414   3.39926
  Beta virt. eigenvalues --    3.51161   3.52678
     Alpha Molecular Orbital Coefficients:
                           1         2         3         4         5
                        (A1)--O   (A1)--O   (A1)--O   (B2)--O   (A1)--O
     Eigenvalues --  -183.43264 -21.59341 -20.51961 -20.51961 -17.96251
   1 1   Ti 1S          0.99873  -0.29570   0.00002   0.00000  -0.00107
   2        2S          0.00449   1.04329   0.00014   0.00000   0.00380
   3        3S          0.00046  -0.00383  -0.00059   0.00000   0.00036
   4        4S         -0.00012   0.00003  -0.00007   0.00000   0.00005
   5        5S          0.00043  -0.00223   0.00317   0.00000   0.00024
   6        6S          0.00003   0.00000  -0.00018   0.00000  -0.00004
   7        7PX         0.00000   0.00000   0.00000   0.00000   0.00000
   8        7PY         0.00000   0.00000   0.00000  -0.00007   0.00000
   9        7PZ        -0.00000  -0.00380   0.00006   0.00000   0.99954
  10        8PX         0.00000   0.00000   0.00000   0.00000   0.00000
  11        8PY         0.00000   0.00000   0.00000  -0.00195   0.00000
  12        8PZ         0.00002   0.00054   0.00138   0.00000   0.00173
  13        9PX         0.00000   0.00000   0.00000   0.00000   0.00000
  14        9PY         0.00000   0.00000   0.00000   0.00140   0.00000
  15        9PZ         0.00001   0.00025  -0.00080   0.00000   0.00024
  16       10PX         0.00000   0.00000   0.00000   0.00000   0.00000
  17       10PY         0.00000   0.00000   0.00000   0.00326   0.00000
  18       10PZ        -0.00003  -0.00065  -0.00234   0.00000  -0.00043
  19       11PX         0.00000   0.00000   0.00000   0.00000   0.00000
  20       11PY         0.00000   0.00000   0.00000  -0.00034   0.00000
  21       11PZ        -0.00000  -0.00006   0.00023   0.00000  -0.00008
  22       12D 0       -0.00000  -0.00005   0.00005   0.00000   0.00038
  23       12D+1        0.00000   0.00000   0.00000   0.00000   0.00000
  24       12D-1        0.00000   0.00000   0.00000  -0.00148   0.00000
  25       12D+2       -0.00001  -0.00010  -0.00095   0.00000  -0.00004
  26       12D-2        0.00000   0.00000   0.00000   0.00000   0.00000
  27       13D 0       -0.00000  -0.00007   0.00001   0.00000   0.00052
  28       13D+1        0.00000   0.00000   0.00000   0.00000   0.00000
  29       13D-1        0.00000   0.00000   0.00000  -0.00008   0.00000
  30       13D+2       -0.00000   0.00002  -0.00001   0.00000  -0.00005
  31       13D-2        0.00000   0.00000   0.00000   0.00000   0.00000
  32       14D 0        0.00000   0.00001   0.00001   0.00000  -0.00009
  33       14D+1        0.00000   0.00000   0.00000   0.00000   0.00000
  34       14D-1        0.00000   0.00000   0.00000  -0.00015   0.00000
  35       14D+2        0.00000   0.00003  -0.00006   0.00000   0.00005
  36       14D-2        0.00000   0.00000   0.00000   0.00000   0.00000
  37       15F 0        0.00000   0.00001   0.00002   0.00000  -0.00008
  38       15F+1        0.00000   0.00000   0.00000   0.00000   0.00000
  39       15F-1        0.00000   0.00000   0.00000   0.00002   0.00000
  40       15F+2        0.00000   0.00001   0.00009   0.00000  -0.00006
  41       15F-2        0.00000   0.00000   0.00000   0.00000   0.00000
  42       15F+3        0.00000   0.00000   0.00000   0.00000   0.00000
  43       15F-3        0.00000   0.00000   0.00000  -0.00014   0.00000
  44 2   O  1S         -0.00000   0.00004   0.70515   0.70515   0.00006
  45        2S          0.00000   0.00003   0.01099   0.01093   0.00005
  46        3S         -0.00001  -0.00015  -0.00426  -0.00442  -0.00014
  47        4PX         0.00000   0.00000   0.00000   0.00000   0.00000
  48        4PY        -0.00000  -0.00001  -0.00049  -0.00042   0.00006
  49        4PZ         0.00000  -0.00000   0.00037   0.00037  -0.00000
  50        5PX         0.00000   0.00000   0.00000   0.00000   0.00000
  51        5PY         0.00000   0.00009   0.00107   0.00084   0.00019
  52        5PZ        -0.00000  -0.00008  -0.00059  -0.00070   0.00001
  53        6D 0       -0.00000  -0.00000   0.00005   0.00005   0.00001
  54        6D+1        0.00000   0.00000   0.00000   0.00000   0.00000
  55        6D-1       -0.00000   0.00001  -0.00001  -0.00000   0.00003
  56        6D+2       -0.00000   0.00001   0.00002  -0.00004   0.00004
  57        6D-2        0.00000   0.00000   0.00000   0.00000   0.00000
  58 3   O  1S         -0.00000   0.00004   0.70515  -0.70515   0.00006
  59        2S          0.00000   0.00003   0.01099  -0.01093   0.00005
  60        3S         -0.00001  -0.00015  -0.00426   0.00442  -0.00014
  61        4PX         0.00000   0.00000   0.00000   0.00000   0.00000
  62        4PY         0.00000   0.00001   0.00049  -0.00042  -0.00006
  63        4PZ         0.00000  -0.00000   0.00037  -0.00037  -0.00000
  64        5PX         0.00000   0.00000   0.00000   0.00000   0.00000
  65        5PY        -0.00000  -0.00009  -0.00107   0.00084  -0.00019
  66        5PZ        -0.00000  -0.00008  -0.00059   0.00070   0.00001
  67        6D 0       -0.00000  -0.00000   0.00005  -0.00005   0.00001
  68        6D+1        0.00000   0.00000   0.00000   0.00000   0.00000
  69        6D-1        0.00000  -0.00001   0.00001  -0.00000  -0.00003
  70        6D+2       -0.00000   0.00001   0.00002   0.00004   0.00004
  71        6D-2        0.00000   0.00000   0.00000   0.00000   0.00000
                           6         7         8         9        10
                        (B2)--O   (B1)--O   (A1)--O   (B2)--O   (A1)--O
     Eigenvalues --   -17.96144 -17.96082  -2.99162  -1.93754  -1.92341
   1 1   Ti 1S          0.00000   0.00000   0.10570   0.00000   0.00091
   2        2S          0.00000   0.00000  -0.41853   0.00000  -0.00344
   3        3S          0.00000   0.00000   0.86074   0.00000   0.00532
   4        4S          0.00000   0.00000   0.03317   0.00000  -0.02306
   5        5S          0.00000   0.00000   0.45410   0.00000   0.01315
   6        6S          0.00000   0.00000  -0.01020   0.00000   0.00868
   7        7PX         0.00000   0.99950   0.00000   0.00000   0.00000
   8        7PY         0.99966   0.00000   0.00000  -0.33114   0.00000
   9        7PZ         0.00000   0.00000  -0.00270   0.00000  -0.33713
  10        8PX         0.00000   0.00165   0.00000   0.00000   0.00000
  11        8PY         0.00349   0.00000   0.00000   0.98009   0.00000
  12        8PZ         0.00000   0.00000   0.01132   0.00000   1.02648
  13        9PX         0.00000   0.00010   0.00000   0.00000   0.00000
  14        9PY         0.00057   0.00000   0.00000  -0.03207   0.00000
  15        9PZ         0.00000   0.00000   0.00831   0.00000  -0.03342
  16       10PX         0.00000  -0.00014   0.00000   0.00000   0.00000
  17       10PY        -0.00313   0.00000   0.00000   0.05602   0.00000
  18       10PZ         0.00000   0.00000  -0.00437   0.00000   0.02296
  19       11PX         0.00000  -0.00004   0.00000   0.00000   0.00000
  20       11PY        -0.00010   0.00000   0.00000   0.00822   0.00000
  21       11PZ         0.00000   0.00000  -0.00335   0.00000   0.00998
  22       12D 0        0.00000   0.00000   0.00001   0.00000   0.01143
  23       12D+1        0.00000   0.00030   0.00000   0.00000   0.00000
  24       12D-1        0.00118   0.00000   0.00000  -0.02238   0.00000
  25       12D+2        0.00000   0.00000  -0.00160   0.00000   0.01558
  26       12D-2        0.00000   0.00000   0.00000   0.00000   0.00000
  27       13D 0        0.00000   0.00000  -0.00042   0.00000  -0.00835
  28       13D+1        0.00000   0.00046   0.00000   0.00000   0.00000
  29       13D-1        0.00059   0.00000   0.00000  -0.00880   0.00000
  30       13D+2        0.00000   0.00000  -0.01021   0.00000   0.00209
  31       13D-2        0.00000   0.00000   0.00000   0.00000   0.00000
  32       14D 0        0.00000   0.00000  -0.00025   0.00000  -0.00161
  33       14D+1        0.00000  -0.00009   0.00000   0.00000   0.00000
  34       14D-1       -0.00026   0.00000   0.00000   0.00508   0.00000
  35       14D+2        0.00000   0.00000   0.00052   0.00000  -0.00347
  36       14D-2        0.00000   0.00000   0.00000   0.00000   0.00000
  37       15F 0        0.00000   0.00000   0.00050   0.00000  -0.00558
  38       15F+1        0.00000  -0.00003   0.00000   0.00000   0.00000
  39       15F-1       -0.00001   0.00000   0.00000   0.01054   0.00000
  40       15F+2        0.00000   0.00000   0.00078   0.00000  -0.00749
  41       15F-2        0.00000   0.00000   0.00000   0.00000   0.00000
  42       15F+3        0.00000   0.00007   0.00000   0.00000   0.00000
  43       15F-3        0.00021   0.00000   0.00000  -0.00246   0.00000
  44 2   O  1S         -0.00009   0.00000  -0.00607  -0.02781   0.01961
  45        2S         -0.00019   0.00000   0.01156   0.06033  -0.04261
  46        3S          0.00114   0.00000   0.00821   0.02505  -0.01839
  47        4PX         0.00000   0.00005   0.00000   0.00000   0.00000
  48        4PY        -0.00005   0.00000  -0.01007  -0.03373   0.03139
  49        4PZ         0.00006   0.00000   0.00684   0.03031  -0.01004
  50        5PX         0.00000   0.00009   0.00000   0.00000   0.00000
  51        5PY        -0.00047   0.00000  -0.00278   0.00215   0.00517
  52        5PZ         0.00034   0.00000   0.00126   0.00549   0.00552
  53        6D 0        0.00000   0.00000  -0.00013   0.00122   0.00195
  54        6D+1        0.00000   0.00001   0.00000   0.00000   0.00000
  55        6D-1       -0.00005   0.00000  -0.00178  -0.00511   0.00210
  56        6D+2       -0.00002   0.00000  -0.00129  -0.00236   0.00320
  57        6D-2        0.00000  -0.00002   0.00000   0.00000   0.00000
  58 3   O  1S          0.00009   0.00000  -0.00607   0.02781   0.01961
  59        2S          0.00019   0.00000   0.01156  -0.06033  -0.04261
  60        3S         -0.00114   0.00000   0.00821  -0.02505  -0.01839
  61        4PX         0.00000   0.00005   0.00000   0.00000   0.00000
  62        4PY        -0.00005   0.00000   0.01007  -0.03373  -0.03139
  63        4PZ        -0.00006   0.00000   0.00684  -0.03031  -0.01004
  64        5PX         0.00000   0.00009   0.00000   0.00000   0.00000
  65        5PY        -0.00047   0.00000   0.00278   0.00215  -0.00517
  66        5PZ        -0.00034   0.00000   0.00126  -0.00549   0.00552
  67        6D 0       -0.00000   0.00000  -0.00013  -0.00122   0.00195
  68        6D+1        0.00000   0.00001   0.00000   0.00000   0.00000
  69        6D-1       -0.00005   0.00000   0.00178  -0.00511  -0.00210
  70        6D+2        0.00002   0.00000  -0.00129   0.00236   0.00320
  71        6D-2        0.00000   0.00002   0.00000   0.00000   0.00000
                          11        12        13        14        15
                        (B1)--O   (A1)--O   (B2)--O   (A1)--O   (B2)--O
     Eigenvalues --    -1.90778  -1.17658  -1.15803  -0.51257  -0.49531
   1 1   Ti 1S          0.00000  -0.01598   0.00000  -0.00971   0.00000
   2        2S          0.00000   0.05810   0.00000   0.03476   0.00000
   3        3S          0.00000  -0.18695   0.00000  -0.13690   0.00000
   4        4S          0.00000  -0.01783   0.00000   0.00587   0.00000
   5        5S          0.00000   0.00155   0.00000   0.05025   0.00000
   6        6S          0.00000   0.01756   0.00000  -0.02625   0.00000
   7        7PX        -0.34305   0.00000   0.00000   0.00000   0.00000
   8        7PY         0.00000   0.00000   0.09962   0.00000   0.04227
   9        7PZ         0.00000  -0.06762   0.00000   0.00362   0.00000
  10        8PX         1.06916   0.00000   0.00000   0.00000   0.00000
  11        8PY         0.00000   0.00000  -0.27923   0.00000  -0.11314
  12        8PZ         0.00000   0.20335   0.00000  -0.01719   0.00000
  13        9PX        -0.03731   0.00000   0.00000   0.00000   0.00000
  14        9PY         0.00000   0.00000   0.08316   0.00000   0.00241
  15        9PZ         0.00000  -0.05165   0.00000   0.05732   0.00000
  16       10PX        -0.00566   0.00000   0.00000   0.00000   0.00000
  17       10PY         0.00000   0.00000  -0.06898   0.00000  -0.05434
  18       10PZ         0.00000   0.02825   0.00000   0.00845   0.00000
  19       11PX         0.01323   0.00000   0.00000   0.00000   0.00000
  20       11PY         0.00000   0.00000  -0.00734   0.00000  -0.05890
  21       11PZ         0.00000   0.00729   0.00000   0.02628   0.00000
  22       12D 0        0.00000  -0.00590   0.00000  -0.10640   0.00000
  23       12D+1        0.00803   0.00000   0.00000   0.00000   0.00000
  24       12D-1        0.00000   0.00000  -0.02684   0.00000  -0.14625
  25       12D+2        0.00000  -0.03108   0.00000  -0.12757   0.00000
  26       12D-2        0.00000   0.00000   0.00000   0.00000   0.00000
  27       13D 0        0.00000  -0.00205   0.00000   0.15488   0.00000
  28       13D+1       -0.00818   0.00000   0.00000   0.00000   0.00000
  29       13D-1        0.00000   0.00000   0.12342   0.00000   0.40175
  30       13D+2        0.00000   0.08481   0.00000   0.22103   0.00000
  31       13D-2        0.00000   0.00000   0.00000   0.00000   0.00000
  32       14D 0        0.00000  -0.00194   0.00000  -0.01670   0.00000
  33       14D+1       -0.00152   0.00000   0.00000   0.00000   0.00000
  34       14D-1        0.00000   0.00000  -0.01183   0.00000   0.03525
  35       14D+2        0.00000  -0.00618   0.00000   0.00583   0.00000
  36       14D-2        0.00000   0.00000   0.00000   0.00000   0.00000
  37       15F 0        0.00000   0.01433   0.00000   0.02085   0.00000
  38       15F+1       -0.00081   0.00000   0.00000   0.00000   0.00000
  39       15F-1        0.00000   0.00000   0.00438   0.00000   0.02153
  40       15F+2        0.00000   0.02197   0.00000   0.01945   0.00000
  41       15F-2        0.00000   0.00000   0.00000   0.00000   0.00000
  42       15F+3        0.00415   0.00000   0.00000   0.00000   0.00000
  43       15F-3        0.00000   0.00000  -0.01123   0.00000  -0.01555
  44 2   O  1S          0.00000  -0.15654  -0.15639   0.01805   0.02155
  45        2S          0.00000   0.32654   0.32634  -0.03965  -0.04889
  46        3S          0.00000   0.37301   0.38884  -0.10508  -0.11067
  47        4PX         0.01282   0.00000   0.00000   0.00000   0.00000
  48        4PY         0.00000  -0.02031  -0.02036  -0.01832  -0.35923
  49        4PZ         0.00000   0.02495   0.01110   0.38449   0.11438
  50        5PX         0.00871   0.00000   0.00000   0.00000   0.00000
  51        5PY         0.00000  -0.02181  -0.02715  -0.00948  -0.24862
  52        5PZ         0.00000   0.01918   0.02296   0.25171   0.08301
  53        6D 0        0.00000   0.00044  -0.00037   0.01162  -0.00481
  54        6D+1        0.00157   0.00000   0.00000   0.00000   0.00000
  55        6D-1        0.00000  -0.00552  -0.00590  -0.01081  -0.01291
  56        6D+2        0.00000  -0.00389  -0.00369   0.00079  -0.01109
  57        6D-2       -0.00216   0.00000   0.00000   0.00000   0.00000
  58 3   O  1S          0.00000  -0.15654   0.15639   0.01805  -0.02155
  59        2S          0.00000   0.32654  -0.32634  -0.03965   0.04889
  60        3S          0.00000   0.37301  -0.38884  -0.10508   0.11067
  61        4PX         0.01282   0.00000   0.00000   0.00000   0.00000
  62        4PY         0.00000   0.02031  -0.02036   0.01832  -0.35923
  63        4PZ         0.00000   0.02495  -0.01110   0.38449  -0.11438
  64        5PX         0.00871   0.00000   0.00000   0.00000   0.00000
  65        5PY         0.00000   0.02181  -0.02715   0.00948  -0.24862
  66        5PZ         0.00000   0.01918  -0.02296   0.25171  -0.08301
  67        6D 0        0.00000   0.00044   0.00037   0.01162   0.00481
  68        6D+1        0.00157   0.00000   0.00000   0.00000   0.00000
  69        6D-1        0.00000   0.00552  -0.00590   0.01081  -0.01291
  70        6D+2        0.00000  -0.00389   0.00369   0.00079   0.01109
  71        6D-2        0.00216   0.00000   0.00000   0.00000   0.00000
                          16        17        18        19        20
                        (A2)--O   (B1)--O   (A1)--O   (B2)--O   (A1)--V
     Eigenvalues --    -0.46139  -0.43880  -0.43803  -0.41075  -0.04458
   1 1   Ti 1S          0.00000   0.00000   0.01610   0.00000  -0.01379
   2        2S          0.00000   0.00000  -0.05522   0.00000   0.04381
   3        3S          0.00000   0.00000   0.23383   0.00000  -0.13448
   4        4S          0.00000   0.00000   0.08779   0.00000   0.25821
   5        5S          0.00000   0.00000  -0.08926   0.00000  -0.14245
   6        6S          0.00000   0.00000   0.02796   0.00000   0.59408
   7        7PX         0.00000   0.04444   0.00000   0.00000   0.00000
   8        7PY         0.00000   0.00000   0.00000   0.05551   0.00000
   9        7PZ         0.00000   0.00000   0.05323   0.00000   0.04020
  10        8PX         0.00000  -0.15923   0.00000   0.00000   0.00000
  11        8PY         0.00000   0.00000   0.00000  -0.16545   0.00000
  12        8PZ         0.00000   0.00000  -0.15046   0.00000  -0.14646
  13        9PX         0.00000   0.19288   0.00000   0.00000   0.00000
  14        9PY         0.00000   0.00000   0.00000   0.16696   0.00000
  15        9PZ         0.00000   0.00000   0.09570   0.00000   0.27468
  16       10PX         0.00000   0.00385   0.00000   0.00000   0.00000
  17       10PY         0.00000   0.00000   0.00000  -0.04184   0.00000
  18       10PZ         0.00000   0.00000  -0.05238   0.00000   0.00709
  19       11PX         0.00000   0.00212   0.00000   0.00000   0.00000
  20       11PY         0.00000   0.00000   0.00000  -0.01895   0.00000
  21       11PZ         0.00000   0.00000  -0.04142   0.00000   0.35829
  22       12D 0        0.00000   0.00000  -0.09432   0.00000   0.06101
  23       12D+1        0.00000  -0.11982   0.00000   0.00000   0.00000
  24       12D-1        0.00000   0.00000   0.00000   0.04364   0.00000
  25       12D+2        0.00000   0.00000   0.03864   0.00000   0.10224
  26       12D-2        0.18541   0.00000   0.00000   0.00000   0.00000
  27       13D 0        0.00000   0.00000   0.15794   0.00000  -0.06495
  28       13D+1        0.00000   0.19624   0.00000   0.00000   0.00000
  29       13D-1        0.00000   0.00000   0.00000   0.01438   0.00000
  30       13D+2        0.00000   0.00000  -0.18605   0.00000  -0.11563
  31       13D-2       -0.27544   0.00000   0.00000   0.00000   0.00000
  32       14D 0        0.00000   0.00000  -0.02776   0.00000   0.12391
  33       14D+1        0.00000  -0.02460   0.00000   0.00000   0.00000
  34       14D-1        0.00000   0.00000   0.00000   0.04796   0.00000
  35       14D+2        0.00000   0.00000  -0.05231   0.00000   0.07464
  36       14D-2        0.04497   0.00000   0.00000   0.00000   0.00000
  37       15F 0        0.00000   0.00000  -0.01633   0.00000  -0.00171
  38       15F+1        0.00000  -0.00052   0.00000   0.00000   0.00000
  39       15F-1        0.00000   0.00000   0.00000  -0.04840   0.00000
  40       15F+2        0.00000   0.00000  -0.03229   0.00000  -0.00533
  41       15F-2       -0.04012   0.00000   0.00000   0.00000   0.00000
  42       15F+3        0.00000  -0.04534   0.00000   0.00000   0.00000
  43       15F-3        0.00000   0.00000   0.00000  -0.02819   0.00000
  44 2   O  1S          0.00000   0.00000  -0.01548   0.00629   0.01012
  45        2S          0.00000   0.00000   0.03788  -0.01954  -0.03038
  46        3S          0.00000   0.00000   0.07920  -0.01816  -0.00777
  47        4PX         0.37040   0.38366   0.00000   0.00000   0.00000
  48        4PY         0.00000   0.00000   0.40427   0.10476   0.01557
  49        4PZ         0.00000   0.00000  -0.00303   0.41831  -0.00704
  50        5PX         0.26386   0.28373   0.00000   0.00000   0.00000
  51        5PY         0.00000   0.00000   0.30014   0.07252   0.00481
  52        5PZ         0.00000   0.00000   0.00147   0.32470   0.00859
  53        6D 0        0.00000   0.00000   0.00723   0.01109  -0.00103
  54        6D+1        0.01108   0.00878   0.00000   0.00000   0.00000
  55        6D-1        0.00000   0.00000   0.00702  -0.00652   0.00232
  56        6D+2        0.00000   0.00000   0.01239   0.00322   0.00100
  57        6D-2       -0.01209  -0.01300   0.00000   0.00000   0.00000
  58 3   O  1S          0.00000   0.00000  -0.01548  -0.00629   0.01012
  59        2S          0.00000   0.00000   0.03788   0.01954  -0.03038
  60        3S          0.00000   0.00000   0.07920   0.01816  -0.00777
  61        4PX        -0.37040   0.38366   0.00000   0.00000   0.00000
  62        4PY         0.00000   0.00000  -0.40427   0.10476  -0.01557
  63        4PZ         0.00000   0.00000  -0.00303  -0.41831  -0.00704
  64        5PX        -0.26386   0.28373   0.00000   0.00000   0.00000
  65        5PY         0.00000   0.00000  -0.30014   0.07252  -0.00481
  66        5PZ         0.00000   0.00000   0.00147  -0.32470   0.00859
  67        6D 0        0.00000   0.00000   0.00723  -0.01109  -0.00103
  68        6D+1       -0.01108   0.00878   0.00000   0.00000   0.00000
  69        6D-1        0.00000   0.00000  -0.00702  -0.00652  -0.00232
  70        6D+2        0.00000   0.00000   0.01239  -0.00322   0.00100
  71        6D-2       -0.01209   0.01300   0.00000   0.00000   0.00000
                          21        22        23        24        25
                        (B1)--V   (A1)--V   (B2)--V   (A1)--V   (B1)--V
     Eigenvalues --     0.01640   0.04333   0.06442   0.09230   0.10624
   1 1   Ti 1S          0.00000   0.01152   0.00000  -0.00539   0.00000
   2        2S          0.00000  -0.04455   0.00000   0.06638   0.00000
   3        3S          0.00000   0.09636   0.00000   0.22273   0.00000
   4        4S          0.00000  -0.40334   0.00000   2.25691   0.00000
   5        5S          0.00000   0.11284   0.00000  -0.53922   0.00000
   6        6S          0.00000   0.03311   0.00000  -1.79211   0.00000
   7        7PX         0.03364   0.00000   0.00000   0.00000  -0.05784
   8        7PY         0.00000   0.00000   0.01602   0.00000   0.00000
   9        7PZ         0.00000   0.02339   0.00000   0.06088   0.00000
  10        8PX        -0.21921   0.00000   0.00000   0.00000  -0.32923
  11        8PY         0.00000   0.00000  -0.33552   0.00000   0.00000
  12        8PZ         0.00000  -0.17811   0.00000   0.12404   0.00000
  13        9PX         0.09050   0.00000   0.00000   0.00000  -0.98015
  14        9PY         0.00000   0.00000  -0.36294   0.00000   0.00000
  15        9PZ         0.00000  -0.06422   0.00000   0.85362   0.00000
  16       10PX         0.12165   0.00000   0.00000   0.00000   0.64482
  17       10PY         0.00000   0.00000   0.32982   0.00000   0.00000
  18       10PZ         0.00000   0.11245   0.00000  -0.40894   0.00000
  19       11PX         0.72389   0.00000   0.00000   0.00000   1.06028
  20       11PY         0.00000   0.00000   1.03907   0.00000   0.00000
  21       11PZ         0.00000   0.47850   0.00000  -0.61031   0.00000
  22       12D 0        0.00000   0.17646   0.00000   0.16105   0.00000
  23       12D+1        0.17753   0.00000   0.00000   0.00000  -0.32999
  24       12D-1        0.00000   0.00000   0.08629   0.00000   0.00000
  25       12D+2        0.00000  -0.18446   0.00000   0.09337   0.00000
  26       12D-2        0.00000   0.00000   0.00000   0.00000   0.00000
  27       13D 0        0.00000  -0.28059   0.00000  -0.19378   0.00000
  28       13D+1       -0.27418   0.00000   0.00000   0.00000   0.46074
  29       13D-1        0.00000   0.00000  -0.05031   0.00000   0.00000
  30       13D+2        0.00000   0.27704   0.00000  -0.13223   0.00000
  31       13D-2        0.00000   0.00000   0.00000   0.00000   0.00000
  32       14D 0        0.00000   0.30009   0.00000   0.03349   0.00000
  33       14D+1        0.32594   0.00000   0.00000   0.00000  -0.04328
  34       14D-1        0.00000   0.00000   0.43642   0.00000   0.00000
  35       14D+2        0.00000  -0.29793   0.00000  -0.11900   0.00000
  36       14D-2        0.00000   0.00000   0.00000   0.00000   0.00000
  37       15F 0        0.00000   0.01764   0.00000   0.01487   0.00000
  38       15F+1        0.01549   0.00000   0.00000   0.00000  -0.02507
  39       15F-1        0.00000   0.00000   0.01228   0.00000   0.00000
  40       15F+2        0.00000  -0.00962   0.00000   0.00724   0.00000
  41       15F-2        0.00000   0.00000   0.00000   0.00000   0.00000
  42       15F+3        0.00638   0.00000   0.00000   0.00000   0.01263
  43       15F-3        0.00000   0.00000   0.01571   0.00000   0.00000
  44 2   O  1S          0.00000  -0.00820   0.00642   0.00065   0.00000
  45        2S          0.00000   0.02593  -0.03741  -0.00779   0.00000
  46        3S          0.00000   0.02072   0.04323  -0.01558   0.00000
  47        4PX        -0.00101   0.00000   0.00000   0.00000  -0.12483
  48        4PY         0.00000   0.06941  -0.09826   0.05535   0.00000
  49        4PZ         0.00000  -0.01907  -0.04902   0.03032   0.00000
  50        5PX         0.00470   0.00000   0.00000   0.00000  -0.13944
  51        5PY         0.00000   0.08914  -0.14069   0.04573   0.00000
  52        5PZ         0.00000  -0.01697  -0.05627   0.03620   0.00000
  53        6D 0        0.00000   0.00153  -0.00146  -0.00087   0.00000
  54        6D+1        0.00095   0.00000   0.00000   0.00000  -0.00319
  55        6D-1        0.00000   0.00013  -0.00057   0.00069   0.00000
  56        6D+2        0.00000  -0.00523  -0.00253  -0.00159   0.00000
  57        6D-2        0.00380   0.00000   0.00000   0.00000  -0.00254
  58 3   O  1S          0.00000  -0.00820  -0.00642   0.00065   0.00000
  59        2S          0.00000   0.02593   0.03741  -0.00779   0.00000
  60        3S          0.00000   0.02072  -0.04323  -0.01558   0.00000
  61        4PX        -0.00101   0.00000   0.00000   0.00000  -0.12483
  62        4PY         0.00000  -0.06941  -0.09826  -0.05535   0.00000
  63        4PZ         0.00000  -0.01907   0.04902   0.03032   0.00000
  64        5PX         0.00470   0.00000   0.00000   0.00000  -0.13944
  65        5PY         0.00000  -0.08914  -0.14069  -0.04573   0.00000
  66        5PZ         0.00000  -0.01697   0.05627   0.03620   0.00000
  67        6D 0        0.00000   0.00153   0.00146  -0.00087   0.00000
  68        6D+1        0.00095   0.00000   0.00000   0.00000  -0.00319
  69        6D-1        0.00000  -0.00013  -0.00057  -0.00069   0.00000
  70        6D+2        0.00000  -0.00523   0.00253  -0.00159   0.00000
  71        6D-2       -0.00380   0.00000   0.00000   0.00000   0.00254
                          26        27        28        29        30
                        (A1)--V   (B2)--V   (A2)--V   (B1)--V   (A2)--V
     Eigenvalues --     0.11102   0.13680   0.15471   0.17773   0.17874
   1 1   Ti 1S          0.00116   0.00000   0.00000   0.00000   0.00000
   2        2S          0.02607   0.00000   0.00000   0.00000   0.00000
   3        3S          0.08123   0.00000   0.00000   0.00000   0.00000
   4        4S          0.75677   0.00000   0.00000   0.00000   0.00000
   5        5S          0.00683   0.00000   0.00000   0.00000   0.00000
   6        6S         -0.99843   0.00000   0.00000   0.00000   0.00000
   7        7PX         0.00000   0.00000   0.00000   0.01117   0.00000
   8        7PY         0.00000   0.07814   0.00000   0.00000   0.00000
   9        7PZ        -0.04139   0.00000   0.00000   0.00000   0.00000
  10        8PX         0.00000   0.00000   0.00000   0.25446   0.00000
  11        8PY         0.00000   0.09178   0.00000   0.00000   0.00000
  12        8PZ        -0.25505   0.00000   0.00000   0.00000   0.00000
  13        9PX         0.00000   0.00000   0.00000   0.34633   0.00000
  14        9PY         0.00000   1.26400   0.00000   0.00000   0.00000
  15        9PZ        -0.89235   0.00000   0.00000   0.00000   0.00000
  16       10PX         0.00000   0.00000   0.00000  -0.35992   0.00000
  17       10PY         0.00000  -0.42980   0.00000   0.00000   0.00000
  18       10PZ         0.47545   0.00000   0.00000   0.00000   0.00000
  19       11PX         0.00000   0.00000   0.00000  -0.38149   0.00000
  20       11PY         0.00000  -1.02183   0.00000   0.00000   0.00000
  21       11PZ         1.08138   0.00000   0.00000   0.00000   0.00000
  22       12D 0       -0.21277   0.00000   0.00000   0.00000   0.00000
  23       12D+1        0.00000   0.00000   0.00000  -0.30269   0.00000
  24       12D-1        0.00000   0.08083   0.00000   0.00000   0.00000
  25       12D+2        0.05554   0.00000   0.00000   0.00000   0.00000
  26       12D-2        0.00000   0.00000  -0.42207   0.00000  -0.14154
  27       13D 0        0.26763   0.00000   0.00000   0.00000   0.00000
  28       13D+1        0.00000   0.00000   0.00000   0.32982   0.00000
  29       13D-1        0.00000  -0.37686   0.00000   0.00000   0.00000
  30       13D+2       -0.22798   0.00000   0.00000   0.00000   0.00000
  31       13D-2        0.00000   0.00000   0.68479   0.00000   0.09176
  32       14D 0        0.17993   0.00000   0.00000   0.00000   0.00000
  33       14D+1        0.00000   0.00000   0.00000   1.00707   0.00000
  34       14D-1        0.00000   0.43694   0.00000   0.00000   0.00000
  35       14D+2        0.07294   0.00000   0.00000   0.00000   0.00000
  36       14D-2        0.00000   0.00000   0.04115   0.00000   1.10805
  37       15F 0        0.00350   0.00000   0.00000   0.00000   0.00000
  38       15F+1        0.00000   0.00000   0.00000  -0.00529   0.00000
  39       15F-1        0.00000   0.04748   0.00000   0.00000   0.00000
  40       15F+2        0.04289   0.00000   0.00000   0.00000   0.00000
  41       15F-2        0.00000   0.00000  -0.04616   0.00000   0.01221
  42       15F+3        0.00000   0.00000   0.00000  -0.00162   0.00000
  43       15F-3        0.00000  -0.02119   0.00000   0.00000   0.00000
  44 2   O  1S         -0.01563  -0.01341   0.00000   0.00000   0.00000
  45        2S          0.05667   0.05710   0.00000   0.00000   0.00000
  46        3S         -0.01005  -0.04171   0.00000   0.00000   0.00000
  47        4PX         0.00000   0.00000   0.23015  -0.00328  -0.07598
  48        4PY        -0.04629  -0.14240   0.00000   0.00000   0.00000
  49        4PZ        -0.02436  -0.03394   0.00000   0.00000   0.00000
  50        5PX         0.00000   0.00000   0.28782   0.02342  -0.15813
  51        5PY         0.04503  -0.06483   0.00000   0.00000   0.00000
  52        5PZ        -0.07058  -0.14379   0.00000   0.00000   0.00000
  53        6D 0       -0.00106   0.00310   0.00000   0.00000   0.00000
  54        6D+1        0.00000   0.00000  -0.00598   0.00398  -0.00142
  55        6D-1        0.00397   0.01053   0.00000   0.00000   0.00000
  56        6D+2        0.00581   0.00780   0.00000   0.00000   0.00000
  57        6D-2        0.00000   0.00000   0.00391  -0.00438   0.00572
  58 3   O  1S         -0.01563   0.01341   0.00000   0.00000   0.00000
  59        2S          0.05667  -0.05710   0.00000   0.00000   0.00000
  60        3S         -0.01005   0.04171   0.00000   0.00000   0.00000
  61        4PX         0.00000   0.00000  -0.23015  -0.00328   0.07598
  62        4PY         0.04629  -0.14240   0.00000   0.00000   0.00000
  63        4PZ        -0.02436   0.03394   0.00000   0.00000   0.00000
  64        5PX         0.00000   0.00000  -0.28782   0.02342   0.15813
  65        5PY        -0.04503  -0.06483   0.00000   0.00000   0.00000
  66        5PZ        -0.07058   0.14379   0.00000   0.00000   0.00000
  67        6D 0       -0.00106  -0.00310   0.00000   0.00000   0.00000
  68        6D+1        0.00000   0.00000   0.00598   0.00398   0.00142
  69        6D-1       -0.00397   0.01053   0.00000   0.00000   0.00000
  70        6D+2        0.00581  -0.00780   0.00000   0.00000   0.00000
  71        6D-2        0.00000   0.00000   0.00391   0.00438   0.00572
                          31        32        33        34        35
                        (A1)--V   (A1)--V   (B2)--V   (B1)--V   (A1)--V
     Eigenvalues --     0.18177   0.20482   0.24803   0.25939   0.26004
   1 1   Ti 1S         -0.00263   0.00765   0.00000   0.00000   0.00843
   2        2S         -0.00031  -0.01949   0.00000   0.00000  -0.00911
   3        3S         -0.00125   0.07306   0.00000   0.00000   0.31797
   4        4S          0.04700  -0.11797   0.00000   0.00000   1.38952
   5        5S         -0.15712   0.11937   0.00000   0.00000  -0.49175
   6        6S          0.13849  -0.14494   0.00000   0.00000  -0.69027
   7        7PX         0.00000   0.00000   0.00000   0.10329   0.00000
   8        7PY         0.00000   0.00000  -0.06441   0.00000   0.00000
   9        7PZ         0.00955   0.02862   0.00000   0.00000   0.04943
  10        8PX         0.00000   0.00000   0.00000   0.47876   0.00000
  11        8PY         0.00000   0.00000   0.43540   0.00000   0.00000
  12        8PZ         0.27830   0.08035   0.00000   0.00000  -0.07594
  13        9PX         0.00000   0.00000   0.00000   1.92990   0.00000
  14        9PY         0.00000   0.00000  -0.02487   0.00000   0.00000
  15        9PZ         0.50278   0.24256   0.00000   0.00000   0.52241
  16       10PX         0.00000   0.00000   0.00000  -1.02298   0.00000
  17       10PY         0.00000   0.00000  -0.23158   0.00000   0.00000
  18       10PZ        -0.37463  -0.23038   0.00000   0.00000  -0.12492
  19       11PX         0.00000   0.00000   0.00000  -0.83102   0.00000
  20       11PY         0.00000   0.00000  -0.27924   0.00000   0.00000
  21       11PZ        -0.50473  -0.11726   0.00000   0.00000  -0.10341
  22       12D 0       -0.31425   0.00914   0.00000   0.00000  -0.12851
  23       12D+1        0.00000   0.00000   0.00000  -0.05955   0.00000
  24       12D-1        0.00000   0.00000  -0.45851   0.00000   0.00000
  25       12D+2        0.10670  -0.25854   0.00000   0.00000  -0.30954
  26       12D-2        0.00000   0.00000   0.00000   0.00000   0.00000
  27       13D 0        0.39518  -0.03460   0.00000   0.00000   0.37869
  28       13D+1        0.00000   0.00000   0.00000   0.29817   0.00000
  29       13D-1        0.00000   0.00000   0.32926   0.00000   0.00000
  30       13D+2        0.01168   0.16527   0.00000   0.00000   0.47988
  31       13D-2        0.00000   0.00000   0.00000   0.00000   0.00000
  32       14D 0        0.86858   0.41305   0.00000   0.00000  -0.39362
  33       14D+1        0.00000   0.00000   0.00000  -0.28290   0.00000
  34       14D-1        0.00000   0.00000   1.03035   0.00000   0.00000
  35       14D+2       -0.33544   1.05688   0.00000   0.00000   0.04814
  36       14D-2        0.00000   0.00000   0.00000   0.00000   0.00000
  37       15F 0       -0.02118   0.01258   0.00000   0.00000  -0.03285
  38       15F+1        0.00000   0.00000   0.00000  -0.01617   0.00000
  39       15F-1        0.00000   0.00000  -0.01817   0.00000   0.00000
  40       15F+2       -0.02021   0.00693   0.00000   0.00000  -0.01932
  41       15F-2        0.00000   0.00000   0.00000   0.00000   0.00000
  42       15F+3        0.00000   0.00000   0.00000   0.03505   0.00000
  43       15F-3        0.00000   0.00000  -0.01431   0.00000   0.00000
  44 2   O  1S          0.00680  -0.01690  -0.00968   0.00000   0.01498
  45        2S         -0.02856   0.01844   0.01727   0.00000  -0.02093
  46        3S          0.01051   0.15084   0.07458   0.00000  -0.14446
  47        4PX         0.00000   0.00000   0.00000  -0.19247   0.00000
  48        4PY        -0.03946   0.08851   0.17184   0.00000  -0.02093
  49        4PZ        -0.03287   0.01247  -0.05003   0.00000  -0.25151
  50        5PX         0.00000   0.00000   0.00000  -0.29980   0.00000
  51        5PY        -0.09691   0.21133   0.30854   0.00000  -0.04705
  52        5PZ         0.02429   0.00463  -0.15700   0.00000  -0.35072
  53        6D 0        0.00637   0.00362  -0.00293   0.00000   0.00573
  54        6D+1        0.00000   0.00000   0.00000  -0.00101   0.00000
  55        6D-1       -0.00609  -0.00216   0.00321   0.00000  -0.00631
  56        6D+2        0.00047   0.00284  -0.00162   0.00000   0.00059
  57        6D-2        0.00000   0.00000   0.00000  -0.00460   0.00000
  58 3   O  1S          0.00680  -0.01690   0.00968   0.00000   0.01498
  59        2S         -0.02856   0.01844  -0.01727   0.00000  -0.02093
  60        3S          0.01051   0.15084  -0.07458   0.00000  -0.14446
  61        4PX         0.00000   0.00000   0.00000  -0.19247   0.00000
  62        4PY         0.03946  -0.08851   0.17184   0.00000   0.02093
  63        4PZ        -0.03287   0.01247   0.05003   0.00000  -0.25151
  64        5PX         0.00000   0.00000   0.00000  -0.29980   0.00000
  65        5PY         0.09691  -0.21133   0.30854   0.00000   0.04705
  66        5PZ         0.02429   0.00463   0.15700   0.00000  -0.35072
  67        6D 0        0.00637   0.00362   0.00293   0.00000   0.00573
  68        6D+1        0.00000   0.00000   0.00000  -0.00101   0.00000
  69        6D-1        0.00609   0.00216   0.00321   0.00000   0.00631
  70        6D+2        0.00047   0.00284   0.00162   0.00000   0.00059
  71        6D-2        0.00000   0.00000   0.00000   0.00460   0.00000
                          36        37        38        39        40
                        (A1)--V   (B2)--V   (A1)--V   (A1)--V   (B1)--V
     Eigenvalues --     0.38992   0.40796   0.71277   0.81515   0.82889
   1 1   Ti 1S          0.01198   0.00000   0.05910  -0.00604   0.00000
   2        2S          0.00808   0.00000  -0.28116   0.05870   0.00000
   3        3S          0.55145   0.00000   2.25277  -0.29640   0.00000
   4        4S          2.93946   0.00000   5.84085  -0.39912   0.00000
   5        5S         -0.85743   0.00000  -4.87395   0.88819   0.00000
   6        6S         -1.14926   0.00000  -1.66036   0.06894   0.00000
   7        7PX         0.00000   0.00000   0.00000   0.00000  -0.04069
   8        7PY         0.00000   0.04227   0.00000   0.00000   0.00000
   9        7PZ        -0.05485   0.00000   0.03506  -0.03279   0.00000
  10        8PX         0.00000   0.00000   0.00000   0.00000  -1.54277
  11        8PY         0.00000   1.01443   0.00000   0.00000   0.00000
  12        8PZ        -0.58169   0.00000   2.61692  -1.89067   0.00000
  13        9PX         0.00000   0.00000   0.00000   0.00000  -1.23325
  14        9PY         0.00000   2.73285   0.00000   0.00000   0.00000
  15        9PZ        -2.00978   0.00000   1.87846  -1.67156   0.00000
  16       10PX         0.00000   0.00000   0.00000   0.00000   2.06633
  17       10PY         0.00000  -1.36748   0.00000   0.00000   0.00000
  18       10PZ         0.91634   0.00000  -3.35068   2.43820   0.00000
  19       11PX         0.00000   0.00000   0.00000   0.00000   0.34830
  20       11PY         0.00000  -0.93607   0.00000   0.00000   0.00000
  21       11PZ         0.70250   0.00000  -0.59380   0.47343   0.00000
  22       12D 0       -0.06750   0.00000   0.02443   0.79572   0.00000
  23       12D+1        0.00000   0.00000   0.00000   0.00000   1.33832
  24       12D-1        0.00000  -0.45128   0.00000   0.00000   0.00000
  25       12D+2       -0.34616   0.00000  -0.26837  -1.18255   0.00000
  26       12D-2        0.00000   0.00000   0.00000   0.00000   0.00000
  27       13D 0       -0.18262   0.00000   0.01538   0.59701   0.00000
  28       13D+1        0.00000   0.00000   0.00000   0.00000   0.96765
  29       13D-1        0.00000   0.48693   0.00000   0.00000   0.00000
  30       13D+2        0.24379   0.00000  -0.32990  -0.72321   0.00000
  31       13D-2        0.00000   0.00000   0.00000   0.00000   0.00000
  32       14D 0        0.20327   0.00000  -0.03943  -0.30645   0.00000
  33       14D+1        0.00000   0.00000   0.00000   0.00000  -0.49666
  34       14D-1        0.00000  -0.20895   0.00000   0.00000   0.00000
  35       14D+2       -0.01501   0.00000   0.03193   0.39022   0.00000
  36       14D-2        0.00000   0.00000   0.00000   0.00000   0.00000
  37       15F 0        0.01493   0.00000   0.02447   0.04984   0.00000
  38       15F+1        0.00000   0.00000   0.00000   0.00000   0.08716
  39       15F-1        0.00000   0.00993   0.00000   0.00000   0.00000
  40       15F+2       -0.01187   0.00000   0.05110  -0.05277   0.00000
  41       15F-2        0.00000   0.00000   0.00000   0.00000   0.00000
  42       15F+3        0.00000   0.00000   0.00000   0.00000  -0.09277
  43       15F-3        0.00000   0.01237   0.00000   0.00000   0.00000
  44 2   O  1S          0.06258   0.07171  -0.02341   0.01970   0.00000
  45        2S         -0.04800  -0.02486   0.03009   0.03725   0.00000
  46        3S         -0.82674  -1.00196   0.01928  -0.47922   0.00000
  47        4PX         0.00000   0.00000   0.00000   0.00000   0.05285
  48        4PY         0.11759   0.06773  -0.08253  -0.04766   0.00000
  49        4PZ         0.02056  -0.08299   0.03855   0.05899   0.00000
  50        5PX         0.00000   0.00000   0.00000   0.00000   0.11260
  51        5PY         0.32682   0.31420  -0.21958   0.19710   0.00000
  52        5PZ        -0.05645  -0.27330   0.12833  -0.11537   0.00000
  53        6D 0        0.00079  -0.00334  -0.00092   0.00962   0.00000
  54        6D+1        0.00000   0.00000   0.00000   0.00000   0.01052
  55        6D-1        0.01801   0.01182   0.00409   0.03026   0.00000
  56        6D+2        0.00849   0.01048  -0.00016   0.01103   0.00000
  57        6D-2        0.00000   0.00000   0.00000   0.00000   0.00586
  58 3   O  1S          0.06258  -0.07171  -0.02341   0.01970   0.00000
  59        2S         -0.04800   0.02486   0.03009   0.03725   0.00000
  60        3S         -0.82674   1.00196   0.01928  -0.47922   0.00000
  61        4PX         0.00000   0.00000   0.00000   0.00000   0.05285
  62        4PY        -0.11759   0.06773   0.08253   0.04766   0.00000
  63        4PZ         0.02056   0.08299   0.03855   0.05899   0.00000
  64        5PX         0.00000   0.00000   0.00000   0.00000   0.11260
  65        5PY        -0.32682   0.31420   0.21958  -0.19710   0.00000
  66        5PZ        -0.05645   0.27330   0.12833  -0.11537   0.00000
  67        6D 0        0.00079   0.00334  -0.00092   0.00962   0.00000
  68        6D+1        0.00000   0.00000   0.00000   0.00000   0.01052
  69        6D-1       -0.01801   0.01182  -0.00409  -0.03026   0.00000
  70        6D+2        0.00849  -0.01048  -0.00016   0.01103   0.00000
  71        6D-2        0.00000   0.00000   0.00000   0.00000  -0.00586
                          41        42        43        44        45
                        (B2)--V   (A2)--V   (A1)--V   (B1)--V   (A1)--V
     Eigenvalues --     0.83679   0.85472   0.91798   0.95148   0.99959
   1 1   Ti 1S          0.00000   0.00000   0.01277   0.00000   0.02185
   2        2S          0.00000   0.00000  -0.06977   0.00000  -0.06587
   3        3S          0.00000   0.00000   0.48298   0.00000   0.62166
   4        4S          0.00000   0.00000   1.04562   0.00000   1.60706
   5        5S          0.00000   0.00000  -1.09761   0.00000  -0.91984
   6        6S          0.00000   0.00000  -0.27413   0.00000  -0.50117
   7        7PX         0.00000   0.00000   0.00000  -0.13295   0.00000
   8        7PY        -0.02814   0.00000   0.00000   0.00000   0.00000
   9        7PZ         0.00000   0.00000  -0.02414   0.00000  -0.07001
  10        8PX         0.00000   0.00000   0.00000  -6.67309   0.00000
  11        8PY        -2.29544   0.00000   0.00000   0.00000   0.00000
  12        8PZ         0.00000   0.00000  -0.39168   0.00000  -4.29359
  13        9PX         0.00000   0.00000   0.00000  -4.28138   0.00000
  14        9PY        -2.40179   0.00000   0.00000   0.00000   0.00000
  15        9PZ         0.00000   0.00000  -0.37743   0.00000  -2.80619
  16       10PX         0.00000   0.00000   0.00000   8.77094   0.00000
  17       10PY         2.88092   0.00000   0.00000   0.00000   0.00000
  18       10PZ         0.00000   0.00000   0.58888   0.00000   5.54737
  19       11PX         0.00000   0.00000   0.00000   1.16635   0.00000
  20       11PY         0.65079   0.00000   0.00000   0.00000   0.00000
  21       11PZ         0.00000   0.00000   0.09097   0.00000   0.74962
  22       12D 0        0.00000   0.00000   1.11024   0.00000  -0.47535
  23       12D+1        0.00000   0.00000   0.00000  -0.33850   0.00000
  24       12D-1        1.70223   0.00000   0.00000   0.00000   0.00000
  25       12D+2        0.00000   0.00000   0.99673   0.00000  -0.14080
  26       12D-2        0.00000   1.42396   0.00000   0.00000   0.00000
  27       13D 0        0.00000   0.00000   0.70397   0.00000  -0.27580
  28       13D+1        0.00000   0.00000   0.00000  -0.21166   0.00000
  29       13D-1        0.88569   0.00000   0.00000   0.00000   0.00000
  30       13D+2        0.00000   0.00000   0.55208   0.00000  -0.05488
  31       13D-2        0.00000   0.96904   0.00000   0.00000   0.00000
  32       14D 0        0.00000   0.00000  -0.31342   0.00000   0.12071
  33       14D+1        0.00000   0.00000   0.00000   0.10731   0.00000
  34       14D-1       -0.38028   0.00000   0.00000   0.00000   0.00000
  35       14D+2        0.00000   0.00000  -0.29353   0.00000  -0.05410
  36       14D-2        0.00000  -0.48472   0.00000   0.00000   0.00000
  37       15F 0        0.00000   0.00000   0.26326   0.00000   0.08965
  38       15F+1        0.00000   0.00000   0.00000  -0.03281   0.00000
  39       15F-1        0.08456   0.00000   0.00000   0.00000   0.00000
  40       15F+2        0.00000   0.00000   0.12261   0.00000   0.45447
  41       15F-2        0.00000   0.20186   0.00000   0.00000   0.00000
  42       15F+3        0.00000   0.00000   0.00000   0.06744   0.00000
  43       15F-3        0.00015   0.00000   0.00000   0.00000   0.00000
  44 2   O  1S         -0.02969   0.00000  -0.00887   0.00000   0.00282
  45        2S         -0.08020   0.00000  -0.00826   0.00000   0.10670
  46        3S          0.87491   0.00000   0.21145   0.00000  -0.32577
  47        4PX         0.00000  -0.05579   0.00000   0.00783   0.00000
  48        4PY         0.15446   0.00000   0.03807   0.00000  -0.29120
  49        4PZ        -0.09532   0.00000   0.13995   0.00000   0.14326
  50        5PX         0.00000  -0.17899   0.00000  -0.14437   0.00000
  51        5PY        -0.34097   0.00000   0.05503   0.00000   0.15975
  52        5PZ         0.12796   0.00000   0.23183   0.00000  -0.28413
  53        6D 0        0.00499   0.00000  -0.01115   0.00000   0.00459
  54        6D+1        0.00000   0.01018   0.00000   0.00136   0.00000
  55        6D-1       -0.03629   0.00000  -0.01866   0.00000  -0.00742
  56        6D+2       -0.03643   0.00000  -0.01040   0.00000   0.00820
  57        6D-2        0.00000   0.00743   0.00000  -0.01034   0.00000
  58 3   O  1S          0.02969   0.00000  -0.00887   0.00000   0.00282
  59        2S          0.08020   0.00000  -0.00826   0.00000   0.10670
  60        3S         -0.87491   0.00000   0.21145   0.00000  -0.32577
  61        4PX         0.00000   0.05579   0.00000   0.00783   0.00000
  62        4PY         0.15446   0.00000  -0.03807   0.00000   0.29120
  63        4PZ         0.09532   0.00000   0.13995   0.00000   0.14326
  64        5PX         0.00000   0.17899   0.00000  -0.14437   0.00000
  65        5PY        -0.34097   0.00000  -0.05503   0.00000  -0.15975
  66        5PZ        -0.12796   0.00000   0.23183   0.00000  -0.28413
  67        6D 0       -0.00499   0.00000  -0.01115   0.00000   0.00459
  68        6D+1        0.00000  -0.01018   0.00000   0.00136   0.00000
  69        6D-1       -0.03629   0.00000   0.01866   0.00000   0.00742
  70        6D+2        0.03643   0.00000  -0.01040   0.00000   0.00820
  71        6D-2        0.00000   0.00743   0.00000   0.01034   0.00000
                          46        47        48        49        50
                        (B2)--V   (B1)--V   (A1)--V   (B1)--V   (A2)--V
     Eigenvalues --     1.04622   1.18382   1.22859   1.34833   1.36965
   1 1   Ti 1S          0.00000   0.00000   0.00119   0.00000   0.00000
   2        2S          0.00000   0.00000   0.00138   0.00000   0.00000
   3        3S          0.00000   0.00000   0.00715   0.00000   0.00000
   4        4S          0.00000   0.00000   0.01690   0.00000   0.00000
   5        5S          0.00000   0.00000   0.06266   0.00000   0.00000
   6        6S          0.00000   0.00000  -0.01965   0.00000   0.00000
   7        7PX         0.00000   0.00016   0.00000  -0.00733   0.00000
   8        7PY        -0.06101   0.00000   0.00000   0.00000   0.00000
   9        7PZ         0.00000   0.00000   0.00037   0.00000   0.00000
  10        8PX         0.00000   0.00911   0.00000  -0.70367   0.00000
  11        8PY        -3.66212   0.00000   0.00000   0.00000   0.00000
  12        8PZ         0.00000   0.00000  -0.38514   0.00000   0.00000
  13        9PX         0.00000   0.00979   0.00000  -0.42664   0.00000
  14        9PY        -2.16262   0.00000   0.00000   0.00000   0.00000
  15        9PZ         0.00000   0.00000  -0.17155   0.00000   0.00000
  16       10PX         0.00000  -0.01161   0.00000   0.89100   0.00000
  17       10PY         4.73909   0.00000   0.00000   0.00000   0.00000
  18       10PZ         0.00000   0.00000   0.46551   0.00000   0.00000
  19       11PX         0.00000  -0.00217   0.00000   0.09570   0.00000
  20       11PY         0.57095   0.00000   0.00000   0.00000   0.00000
  21       11PZ         0.00000   0.00000   0.04817   0.00000   0.00000
  22       12D 0        0.00000   0.00000  -0.34859   0.00000   0.00000
  23       12D+1        0.00000  -0.08548   0.00000  -0.17534   0.00000
  24       12D-1       -0.47795   0.00000   0.00000   0.00000   0.00000
  25       12D+2        0.00000   0.00000  -0.13559   0.00000   0.00000
  26       12D-2        0.00000   0.00000   0.00000   0.00000  -0.09128
  27       13D 0        0.00000   0.00000  -0.18446   0.00000   0.00000
  28       13D+1        0.00000  -0.03678   0.00000  -0.11602   0.00000
  29       13D-1       -0.18878   0.00000   0.00000   0.00000   0.00000
  30       13D+2        0.00000   0.00000  -0.07062   0.00000   0.00000
  31       13D-2        0.00000   0.00000   0.00000   0.00000  -0.11727
  32       14D 0        0.00000   0.00000   0.08317   0.00000   0.00000
  33       14D+1        0.00000   0.02801   0.00000   0.07226   0.00000
  34       14D-1        0.16825   0.00000   0.00000   0.00000   0.00000
  35       14D+2        0.00000   0.00000   0.02331   0.00000   0.00000
  36       14D-2        0.00000   0.00000   0.00000   0.00000   0.14626
  37       15F 0        0.00000   0.00000   0.84159   0.00000   0.00000
  38       15F+1        0.00000   0.95470   0.00000   0.21500   0.00000
  39       15F-1       -0.32599   0.00000   0.00000   0.00000   0.00000
  40       15F+2        0.00000   0.00000  -0.44204   0.00000   0.00000
  41       15F-2        0.00000   0.00000   0.00000   0.00000   0.60251
  42       15F+3        0.00000   0.24435   0.00000  -0.81777   0.00000
  43       15F-3        0.54276   0.00000   0.00000   0.00000   0.00000
  44 2   O  1S          0.00349   0.00000   0.00081   0.00000   0.00000
  45        2S         -0.07879   0.00000   0.01421   0.00000   0.00000
  46        3S         -0.06017   0.00000  -0.05000   0.00000   0.00000
  47        4PX         0.00000   0.00697   0.00000  -0.45291   0.59820
  48        4PY         0.23844   0.00000  -0.15764   0.00000   0.00000
  49        4PZ        -0.16324   0.00000  -0.13791   0.00000   0.00000
  50        5PX         0.00000  -0.00711   0.00000   0.17168  -0.44029
  51        5PY        -0.16173   0.00000   0.03921   0.00000   0.00000
  52        5PZ         0.06116   0.00000  -0.06184   0.00000   0.00000
  53        6D 0       -0.00946   0.00000  -0.00695   0.00000   0.00000
  54        6D+1        0.00000  -0.04265   0.00000   0.03912  -0.00038
  55        6D-1        0.00393   0.00000  -0.02779   0.00000   0.00000
  56        6D+2        0.03013   0.00000   0.03893   0.00000   0.00000
  57        6D-2        0.00000  -0.02910   0.00000  -0.02334   0.03055
  58 3   O  1S         -0.00349   0.00000   0.00081   0.00000   0.00000
  59        2S          0.07879   0.00000   0.01421   0.00000   0.00000
  60        3S          0.06017   0.00000  -0.05000   0.00000   0.00000
  61        4PX         0.00000   0.00697   0.00000  -0.45291  -0.59820
  62        4PY         0.23844   0.00000   0.15764   0.00000   0.00000
  63        4PZ         0.16324   0.00000  -0.13791   0.00000   0.00000
  64        5PX         0.00000  -0.00711   0.00000   0.17168   0.44029
  65        5PY        -0.16173   0.00000  -0.03921   0.00000   0.00000
  66        5PZ        -0.06116   0.00000  -0.06184   0.00000   0.00000
  67        6D 0        0.00946   0.00000  -0.00695   0.00000   0.00000
  68        6D+1        0.00000  -0.04265   0.00000   0.03912   0.00038
  69        6D-1        0.00393   0.00000   0.02779   0.00000   0.00000
  70        6D+2       -0.03013   0.00000   0.03893   0.00000   0.00000
  71        6D-2        0.00000   0.02910   0.00000   0.02334   0.03055
                          51        52        53        54        55
                        (B2)--V   (B2)--V   (B1)--V   (A1)--V   (A2)--V
     Eigenvalues --     1.38462   1.47014   1.48260   1.48738   1.48799
   1 1   Ti 1S          0.00000   0.00000   0.00000   0.01113   0.00000
   2        2S          0.00000   0.00000   0.00000  -0.13611   0.00000
   3        3S          0.00000   0.00000   0.00000   0.81301   0.00000
   4        4S          0.00000   0.00000   0.00000   1.90547   0.00000
   5        5S          0.00000   0.00000   0.00000  -2.61893   0.00000
   6        6S          0.00000   0.00000   0.00000  -0.22863   0.00000
   7        7PX         0.00000   0.00000  -0.00718   0.00000   0.00000
   8        7PY         0.00856  -0.00952   0.00000   0.00000   0.00000
   9        7PZ         0.00000   0.00000   0.00000  -0.11594   0.00000
  10        8PX         0.00000   0.00000  -0.23677   0.00000   0.00000
  11        8PY        -0.05924  -0.80394   0.00000   0.00000   0.00000
  12        8PZ         0.00000   0.00000   0.00000  -3.53179   0.00000
  13        9PX         0.00000   0.00000  -0.83677   0.00000   0.00000
  14        9PY        -0.26203  -0.04338   0.00000   0.00000   0.00000
  15        9PZ         0.00000   0.00000   0.00000  -1.54940   0.00000
  16       10PX         0.00000   0.00000   0.29871   0.00000   0.00000
  17       10PY         0.01471   1.03103   0.00000   0.00000   0.00000
  18       10PZ         0.00000   0.00000   0.00000   4.91610   0.00000
  19       11PX         0.00000   0.00000   0.13923   0.00000   0.00000
  20       11PY         0.05493   0.03015   0.00000   0.00000   0.00000
  21       11PZ         0.00000   0.00000   0.00000   0.30135   0.00000
  22       12D 0        0.00000   0.00000   0.00000  -0.45107   0.00000
  23       12D+1        0.00000   0.00000   0.47265   0.00000   0.00000
  24       12D-1       -0.10199   0.01208   0.00000   0.00000   0.00000
  25       12D+2        0.00000   0.00000   0.00000   0.22734   0.00000
  26       12D-2        0.00000   0.00000   0.00000   0.00000  -0.78155
  27       13D 0        0.00000   0.00000   0.00000  -0.14189   0.00000
  28       13D+1        0.00000   0.00000   0.14477   0.00000   0.00000
  29       13D-1       -0.00652   0.01582   0.00000   0.00000   0.00000
  30       13D+2        0.00000   0.00000   0.00000  -0.00057   0.00000
  31       13D-2        0.00000   0.00000   0.00000   0.00000  -0.26287
  32       14D 0        0.00000   0.00000   0.00000  -0.11365   0.00000
  33       14D+1        0.00000   0.00000   0.11273   0.00000   0.00000
  34       14D-1       -0.10025   0.06723   0.00000   0.00000   0.00000
  35       14D+2        0.00000   0.00000   0.00000  -0.34277   0.00000
  36       14D-2        0.00000   0.00000   0.00000   0.00000  -0.12697
  37       15F 0        0.00000   0.00000   0.00000   0.06894   0.00000
  38       15F+1        0.00000   0.00000  -0.15426   0.00000   0.00000
  39       15F-1       -0.02417  -0.87207   0.00000   0.00000   0.00000
  40       15F+2        0.00000   0.00000   0.00000  -0.24570   0.00000
  41       15F-2        0.00000   0.00000   0.00000   0.00000   0.91564
  42       15F+3        0.00000   0.00000   0.67464   0.00000   0.00000
  43       15F-3       -0.08982  -0.71146   0.00000   0.00000   0.00000
  44 2   O  1S         -0.00336   0.00873   0.00000  -0.03496   0.00000
  45        2S          0.02186  -0.10098   0.00000   0.36706   0.00000
  46        3S         -0.01226  -0.08335   0.00000   0.18932   0.00000
  47        4PX         0.00000   0.00000  -0.54063   0.00000  -0.37284
  48        4PY        -0.32438   0.09926   0.00000   0.51467   0.00000
  49        4PZ        -0.61968  -0.03236   0.00000   0.13033   0.00000
  50        5PX         0.00000   0.00000   1.06607   0.00000   1.00152
  51        5PY         0.36345  -0.35642   0.00000  -1.18509   0.00000
  52        5PZ         0.72280  -0.48404   0.00000  -0.09060   0.00000
  53        6D 0       -0.00777   0.10757   0.00000   0.02619   0.00000
  54        6D+1        0.00000   0.00000  -0.05080   0.00000  -0.04773
  55        6D-1        0.00889  -0.01500   0.00000   0.00156   0.00000
  56        6D+2       -0.01094   0.03116   0.00000   0.04094   0.00000
  57        6D-2        0.00000   0.00000   0.06443   0.00000   0.09146
  58 3   O  1S          0.00336  -0.00873   0.00000  -0.03496   0.00000
  59        2S         -0.02186   0.10098   0.00000   0.36706   0.00000
  60        3S          0.01226   0.08335   0.00000   0.18932   0.00000
  61        4PX         0.00000   0.00000  -0.54063   0.00000   0.37284
  62        4PY        -0.32438   0.09926   0.00000  -0.51467   0.00000
  63        4PZ         0.61968   0.03236   0.00000   0.13033   0.00000
  64        5PX         0.00000   0.00000   1.06607   0.00000  -1.00152
  65        5PY         0.36345  -0.35642   0.00000   1.18509   0.00000
  66        5PZ        -0.72280   0.48404   0.00000  -0.09060   0.00000
  67        6D 0        0.00777  -0.10757   0.00000   0.02619   0.00000
  68        6D+1        0.00000   0.00000  -0.05080   0.00000   0.04773
  69        6D-1        0.00889  -0.01500   0.00000  -0.00156   0.00000
  70        6D+2        0.01094  -0.03116   0.00000   0.04094   0.00000
  71        6D-2        0.00000   0.00000  -0.06443   0.00000   0.09146
                          56        57        58        59        60
                        (A1)--V   (B2)--V   (B2)--V   (A1)--V   (A1)--V
     Eigenvalues --     1.54526   1.68304   1.91536   2.15625   2.44068
   1 1   Ti 1S          0.00729   0.00000   0.00000   0.01507   0.01307
   2        2S         -0.10475   0.00000   0.00000  -0.06167  -0.23463
   3        3S          0.62664   0.00000   0.00000   0.30653   0.99872
   4        4S          1.52390   0.00000   0.00000  -0.02663   0.73454
   5        5S         -2.09937   0.00000   0.00000  -0.35674  -3.66961
   6        6S         -0.18132   0.00000   0.00000   0.02845   0.09775
   7        7PX         0.00000   0.00000   0.00000   0.00000   0.00000
   8        7PY         0.00000  -0.19465  -0.01760   0.00000   0.00000
   9        7PZ        -0.09960   0.00000   0.00000  -0.00577  -0.13579
  10        8PX         0.00000   0.00000   0.00000   0.00000   0.00000
  11        8PY         0.00000  -5.58383  -2.02127   0.00000   0.00000
  12        8PZ        -2.86663   0.00000   0.00000  -1.21308  -3.60955
  13        9PX         0.00000   0.00000   0.00000   0.00000   0.00000
  14        9PY         0.00000  -3.18564  -0.42941   0.00000   0.00000
  15        9PZ        -2.07822   0.00000   0.00000  -0.39304  -0.53947
  16       10PX         0.00000   0.00000   0.00000   0.00000   0.00000
  17       10PY         0.00000   7.80640   2.53349   0.00000   0.00000
  18       10PZ         3.99012   0.00000   0.00000   1.48890   5.15090
  19       11PX         0.00000   0.00000   0.00000   0.00000   0.00000
  20       11PY         0.00000   0.53659   0.10535   0.00000   0.00000
  21       11PZ         0.36659   0.00000   0.00000   0.08648   0.07113
  22       12D 0        0.53884   0.00000   0.00000   0.19022   0.03703
  23       12D+1        0.00000   0.00000   0.00000   0.00000   0.00000
  24       12D-1        0.00000  -0.65681  -1.20339   0.00000   0.00000
  25       12D+2        0.62679   0.00000   0.00000   0.80545   1.49136
  26       12D-2        0.00000   0.00000   0.00000   0.00000   0.00000
  27       13D 0        0.13919   0.00000   0.00000   0.06605  -0.00083
  28       13D+1        0.00000   0.00000   0.00000   0.00000   0.00000
  29       13D-1        0.00000  -0.06430  -0.37661   0.00000   0.00000
  30       13D+2        0.10876   0.00000   0.00000   0.27444   0.24849
  31       13D-2        0.00000   0.00000   0.00000   0.00000   0.00000
  32       14D 0        0.14008   0.00000   0.00000   0.02941  -0.01158
  33       14D+1        0.00000   0.00000   0.00000   0.00000   0.00000
  34       14D-1        0.00000   0.47080   0.13001   0.00000   0.00000
  35       14D+2       -0.12126   0.00000   0.00000  -0.08149  -0.14630
  36       14D-2        0.00000   0.00000   0.00000   0.00000   0.00000
  37       15F 0       -0.19609   0.00000   0.00000  -0.52720  -0.37563
  38       15F+1        0.00000   0.00000   0.00000   0.00000   0.00000
  39       15F-1        0.00000   0.05390   0.66225   0.00000   0.00000
  40       15F+2        0.02605   0.00000   0.00000  -0.92131  -0.70444
  41       15F-2        0.00000   0.00000   0.00000   0.00000   0.00000
  42       15F+3        0.00000   0.00000   0.00000   0.00000   0.00000
  43       15F-3        0.00000  -0.08204  -0.59670   0.00000   0.00000
  44 2   O  1S         -0.02035   0.02724   0.03396  -0.02745  -0.02579
  45        2S          0.19885  -0.55829  -0.55029   0.65476  -1.12974
  46        3S          0.19872   0.00650  -0.35755   0.11669   3.13914
  47        4PX         0.00000   0.00000   0.00000   0.00000   0.00000
  48        4PY        -0.03441  -0.41673   0.39617  -0.38557  -0.02412
  49        4PZ        -0.61258   0.20159  -0.19928   0.23056   0.05114
  50        5PX         0.00000   0.00000   0.00000   0.00000   0.00000
  51        5PY        -0.13752   0.95854  -0.04440   0.27468  -0.95080
  52        5PZ         1.18446  -0.57244   0.22170   0.05696   0.58234
  53        6D 0       -0.03123  -0.00131  -0.05155  -0.03445  -0.02809
  54        6D+1        0.00000   0.00000   0.00000   0.00000   0.00000
  55        6D-1        0.04564  -0.00254   0.09541   0.06718   0.20222
  56        6D+2       -0.01461  -0.00622  -0.02104  -0.06200   0.16815
  57        6D-2        0.00000   0.00000   0.00000   0.00000   0.00000
  58 3   O  1S         -0.02035  -0.02724  -0.03396  -0.02745  -0.02579
  59        2S          0.19885   0.55829   0.55029   0.65476  -1.12974
  60        3S          0.19872  -0.00650   0.35755   0.11669   3.13914
  61        4PX         0.00000   0.00000   0.00000   0.00000   0.00000
  62        4PY         0.03441  -0.41673   0.39617   0.38557   0.02412
  63        4PZ        -0.61258  -0.20159   0.19928   0.23056   0.05114
  64        5PX         0.00000   0.00000   0.00000   0.00000   0.00000
  65        5PY         0.13752   0.95854  -0.04440  -0.27468   0.95080
  66        5PZ         1.18446   0.57244  -0.22170   0.05696   0.58234
  67        6D 0       -0.03123   0.00131   0.05155  -0.03445  -0.02809
  68        6D+1        0.00000   0.00000   0.00000   0.00000   0.00000
  69        6D-1       -0.04564  -0.00254   0.09541  -0.06718  -0.20222
  70        6D+2       -0.01461   0.00622   0.02104  -0.06200   0.16815
  71        6D-2        0.00000   0.00000   0.00000   0.00000   0.00000
                          61        62        63        64        65
                        (B2)--V   (A2)--V   (B2)--V   (A1)--V   (B1)--V
     Eigenvalues --     2.57206   3.01968   3.04316   3.06061   3.10747
   1 1   Ti 1S          0.00000   0.00000   0.00000  -0.00004   0.00000
   2        2S          0.00000   0.00000   0.00000  -0.00474   0.00000
   3        3S          0.00000   0.00000   0.00000  -0.00432   0.00000
   4        4S          0.00000   0.00000   0.00000  -0.08266   0.00000
   5        5S          0.00000   0.00000   0.00000  -0.02337   0.00000
   6        6S          0.00000   0.00000   0.00000   0.03155   0.00000
   7        7PX         0.00000   0.00000   0.00000   0.00000  -0.00183
   8        7PY        -0.25541   0.00000  -0.01851   0.00000   0.00000
   9        7PZ         0.00000   0.00000   0.00000   0.00450   0.00000
  10        8PX         0.00000   0.00000   0.00000   0.00000  -0.06990
  11        8PY        -6.44656   0.00000  -0.00963   0.00000   0.00000
  12        8PZ         0.00000   0.00000   0.00000   0.08623   0.00000
  13        9PX         0.00000   0.00000   0.00000   0.00000  -0.00583
  14        9PY        -0.74982   0.00000   0.07278   0.00000   0.00000
  15        9PZ         0.00000   0.00000   0.00000   0.05435   0.00000
  16       10PX         0.00000   0.00000   0.00000   0.00000   0.09404
  17       10PY         9.25886   0.00000   0.10288   0.00000   0.00000
  18       10PZ         0.00000   0.00000   0.00000  -0.11972   0.00000
  19       11PX         0.00000   0.00000   0.00000   0.00000   0.00107
  20       11PY         0.06085   0.00000  -0.03026   0.00000   0.00000
  21       11PZ         0.00000   0.00000   0.00000  -0.00703   0.00000
  22       12D 0        0.00000   0.00000   0.00000   0.04800   0.00000
  23       12D+1        0.00000   0.00000   0.00000   0.00000  -0.14282
  24       12D-1       -2.68974   0.00000  -0.04979   0.00000   0.00000
  25       12D+2        0.00000   0.00000   0.00000   0.18695   0.00000
  26       12D-2        0.00000  -0.10245   0.00000   0.00000   0.00000
  27       13D 0        0.00000   0.00000   0.00000  -0.01595   0.00000
  28       13D+1        0.00000   0.00000   0.00000   0.00000  -0.04452
  29       13D-1       -0.41051   0.00000   0.03107   0.00000   0.00000
  30       13D+2        0.00000   0.00000   0.00000   0.05263   0.00000
  31       13D-2        0.00000  -0.03141   0.00000   0.00000   0.00000
  32       14D 0        0.00000   0.00000   0.00000  -0.02170   0.00000
  33       14D+1        0.00000   0.00000   0.00000   0.00000   0.01910
  34       14D-1        0.22890   0.00000  -0.00435   0.00000   0.00000
  35       14D+2        0.00000   0.00000   0.00000  -0.02958   0.00000
[...]
                           6         7         8         9        10
   6        3S          2.37406
   7        3PX         0.00000   2.15334
   8        3PY         0.00000   0.00000   2.22661
   9        3PZ         0.00000   0.00000   0.00000   2.15208
  10        4D 0        0.00000   0.00000   0.00000   0.00000   0.26423
  11        4D+1        0.00000   0.00000   0.00000   0.00000   0.00000
  12        4D-1        0.00000   0.00000   0.00000   0.00000   0.00000
  13        4D+2        0.00000   0.00000   0.00000   0.00000   0.00000
  14        4D-2        0.00000   0.00000   0.00000   0.00000   0.00000
  15        5S         -0.06311   0.00000   0.00000   0.00000   0.00000
  16        5PX         0.00000   0.01502   0.00000   0.00000   0.00000
  17        5PY         0.00000   0.00000  -0.00985   0.00000   0.00000
  18        5PZ         0.00000   0.00000   0.00000   0.02877   0.00000
  19 2   O  1S          0.00003   0.00000   0.00007   0.00003  -0.00000
  20        2S         -0.00779   0.00000  -0.01010  -0.00502   0.00021
  21        2PX        -0.00000  -0.00598   0.00000   0.00000  -0.00000
  22        2PY        -0.01853   0.00000   0.00323  -0.01190   0.02275
  23        2PZ        -0.00714  -0.00000  -0.01935   0.00137   0.03694
  24 3   O  1S          0.00003  -0.00000   0.00007   0.00003  -0.00000
  25        2S         -0.00779  -0.00000  -0.01010  -0.00502   0.00021
  26        2PX         0.00000  -0.00598   0.00000  -0.00000   0.00000
  27        2PY        -0.01853  -0.00000   0.00323  -0.01190   0.02275
  28        2PZ        -0.00714   0.00000  -0.01935   0.00137   0.03694
                          11        12        13        14        15
  11        4D+1        0.19557
  12        4D-1        0.00000   0.53307
  13        4D+2        0.00000   0.00000   0.26628
  14        4D-2        0.00000   0.00000   0.00000   0.40685
  15        5S          0.00000   0.00000   0.00000   0.00000   0.09022
  16        5PX         0.00000   0.00000   0.00000   0.00000   0.00000
  17        5PY         0.00000   0.00000   0.00000   0.00000   0.00000
  18        5PZ         0.00000   0.00000   0.00000   0.00000   0.00000
  19 2   O  1S         -0.00000  -0.00080  -0.00038   0.00000  -0.00120
  20        2S          0.00000  -0.00110   0.00002  -0.00000   0.02343
  21        2PX         0.03768  -0.00000   0.00000   0.07837   0.00000
  22        2PY        -0.00000   0.09673   0.01468  -0.00000   0.02746
  23        2PZ        -0.00000   0.00578   0.04971   0.00000   0.01063
  24 3   O  1S         -0.00000  -0.00080  -0.00038   0.00000  -0.00120
  25        2S         -0.00000  -0.00110   0.00002  -0.00000   0.02343
  26        2PX         0.03768   0.00000   0.00000   0.07837  -0.00000
  27        2PY         0.00000   0.09673   0.01468   0.00000   0.02746
  28        2PZ         0.00000   0.00578   0.04971  -0.00000   0.01063
                          16        17        18        19        20
  16        5PX         0.15037
  17        5PY         0.00000   0.13646
  18        5PZ         0.00000   0.00000   0.06926
  19 2   O  1S          0.00000  -0.00154  -0.00063   2.11009
  20        2S         -0.00000   0.02148   0.01052  -0.10741   1.94957
  21        2PX         0.04955  -0.00000  -0.00000   0.00000   0.00000
  22        2PY         0.00000  -0.01121   0.02334   0.00000   0.00000
  23        2PZ        -0.00000   0.05566   0.00561   0.00000   0.00000
  24 3   O  1S         -0.00000  -0.00154  -0.00063   0.00000   0.00000
  25        2S         -0.00000   0.02148   0.01052   0.00000  -0.00004
  26        2PX         0.04955   0.00000   0.00000  -0.00000   0.00000
  27        2PY         0.00000  -0.01121   0.02334   0.00000  -0.00014
  28        2PZ         0.00000   0.05566   0.00561   0.00000   0.00000
                          21        22        23        24        25
  21        2PX         1.31859
  22        2PY         0.00000   1.35116
  23        2PZ         0.00000   0.00000   1.49486
  24 3   O  1S          0.00000   0.00000   0.00000   2.11009
  25        2S          0.00000  -0.00014   0.00000  -0.10741   1.94957
  26        2PX         0.00004  -0.00000   0.00000   0.00000   0.00000
  27        2PY         0.00000   0.00176   0.00000   0.00000   0.00000
  28        2PZ         0.00000   0.00000  -0.00030   0.00000   0.00000
                          26        27        28
  26        2PX         1.31859
  27        2PY         0.00000   1.35116
  28        2PZ         0.00000   0.00000   1.49486
     MBS Gross orbital populations:
                         Total     Alpha     Beta      Spin
   1 1   Ti 1S          1.99994   0.99997   0.99997   0.00000
   2        2S          1.99656   0.99828   0.99828   0.00000
   3        2PX         1.99786   0.99893   0.99893   0.00000
   4        2PY         1.99803   0.99901   0.99901   0.00000
   5        2PZ         1.99778   0.99889   0.99889   0.00000
   6        3S          2.01445   1.00722   1.00722  -0.00000
   7        3PX         1.94731   0.97365   0.97365   0.00000
   8        3PY         1.94907   0.97453   0.97453   0.00000
   9        3PZ         1.94097   0.97049   0.97049   0.00000
  10        4D 0        0.38402   0.19201   0.19201   0.00000
  11        4D+1        0.27093   0.13546   0.13546   0.00000
  12        4D-1        0.73429   0.36714   0.36714   0.00000
  13        4D+2        0.39433   0.19717   0.19717  -0.00000
  14        4D-2        0.56358   0.28179   0.28179   0.00000
  15        5S          0.14790   0.07395   0.07395   0.00000
  16        5PX         0.26368   0.13184   0.13184   0.00000
  17        5PY         0.25505   0.12752   0.12752   0.00000
  18        5PZ         0.17465   0.08732   0.08732   0.00000
  19 2   O  1S          1.99827   0.99914   0.99914   0.00000
  20        2S          1.87405   0.93703   0.93703   0.00000
  21        2PX         1.47832   0.73916   0.73916   0.00000
  22        2PY         1.49995   0.74997   0.74997   0.00000
  23        2PZ         1.63421   0.81711   0.81711   0.00000
  24 3   O  1S          1.99827   0.99914   0.99914   0.00000
  25        2S          1.87405   0.93703   0.93703   0.00000
  26        2PX         1.47832   0.73916   0.73916   0.00000
  27        2PY         1.49995   0.74997   0.74997   0.00000
  28        2PZ         1.63421   0.81711   0.81711   0.00000
          MBS Condensed to atoms (all electrons):
               1          2          3
     1  Ti  20.082055   0.474168   0.474168
     2  O    0.474168   8.009453   0.001184
     3  O    0.474168   0.001184   8.009453
          MBS Atomic-Atomic Spin Densities.
               1          2          3
     1  Ti   0.000000   0.000000  -0.000000
     2  O    0.000000   0.000000   0.000000
     3  O   -0.000000   0.000000   0.000000
 MBS Mulliken charges and spin densities:
               1          2
     1  Ti   0.969609  -0.000000
     2  O   -0.484804   0.000000
     3  O   -0.484804   0.000000
 Sum of MBS Mulliken charges =   0.00000   0.00000
 MBS Mulliken charges and spin densities with hydrogens summed into heavy atoms:
               1          2
     1  Ti   0.969609  -0.000000
     2  O   -0.484804   0.000000
     3  O   -0.484804   0.000000
 MBS Atomic Valencies and Mayer Atomic Bond Orders:
               1          2          3
     1  Ti   4.426609   2.213305   2.213305
     2  O    2.213305   2.279839   0.066534
     3  O    2.213305   0.066534   2.279839
 MBS Mayer-style numbers of lone pairs (19.000 valence pairs, 14.507 lone pairs):
               1
     1  Ti   8.301891
     2  O    3.102483
     3  O    3.102483
 BEBO parameters in MulMin, MxElBE=  0:
 ELP=  6.20496591362     EBEBO= 0.273332232188E-01 Sum=  6.23229913684    
 ELP=  6.20496591362     EBEBO= 0.273332232188E-01 EJK=  6.23229913684     0.206676039130E-18 Sum=  6.23229913684    
 0 EA=  3.11614956842     EB=  3.11614956842     ETot=  6.23229913684    
 1 EA=  3.11614956842     EB=  3.11614956842     ETot=  6.23229913684    
 2 EA=  3.11614956842     EB=  3.11614956842     ETot=  6.23229913684    
 3 EJ=  6.23229913684     EK=-0.235517191849E-33 ETot=  6.23229913684    
 4 EJ=  6.23229913684     EK=-0.235517191849E-33 ETot=  6.23229913684    
 5 EA=  3.11614956842     EB=  3.11614956842     ETot=  6.23229913684    
 Orbital energies and kinetic energies (alpha):
                                 1                 2
   1         (A1)--O        -183.432637        231.876499
   2         (A1)--O         -21.593410         40.828440
   3         (A1)--O         -20.519613         29.206391
   4         (B2)--O         -20.519610         29.206590
   5         (A1)--O         -17.962510         39.559744
   6         (B2)--O         -17.961438         39.566199
   7         (B1)--O         -17.960824         39.556831
   8         (A1)--O          -2.991618          7.996208
   9         (B2)--O          -1.937538          6.373001
  10         (A1)--O          -1.923408          6.572122
  11         (B1)--O          -1.907785          6.769995
  12         (A1)--O          -1.176583          3.338159
  13         (B2)--O          -1.158026          3.511196
  14         (A1)--O          -0.512572          2.296886
  15         (B2)--O          -0.495308          2.795924
  16         (A2)--O          -0.461387          2.122716
  17         (B1)--O          -0.438795          2.100397
  18         (A1)--O          -0.438028          2.646774
  19         (B2)--O          -0.410752          2.351515
  20         (A1)--V          -0.044579          0.475227
  21         (B1)--V           0.016401          0.661804
  22         (A1)--V           0.043334          1.327338
  23         (B2)--V           0.064419          0.300212
  24         (A1)--V           0.092302          0.861247
  25         (B1)--V           0.106242          1.814459
  26         (A1)--V           0.111017          1.012003
  27         (B2)--V           0.136801          1.565760
  28         (A2)--V           0.154713          3.554480
  29         (B1)--V           0.177726          0.876378
  30         (A2)--V           0.178744          0.331275
  31         (A1)--V           0.181774          1.183210
  32         (A1)--V           0.204817          0.624627
  33         (B2)--V           0.248035          1.593823
  34         (B1)--V           0.259386          1.737937
  35         (A1)--V           0.260040          3.206077
  36         (A1)--V           0.389920          1.573790
  37         (B2)--V           0.407958          2.277505
  38         (A1)--V           0.712769          3.532446
  39         (A1)--V           0.815148          3.884850
  40         (B1)--V           0.828890          4.083768
  41         (B2)--V           0.836790          3.627039
  42         (A2)--V           0.854720          4.060858
  43         (A1)--V           0.917983          3.891862
  44         (B1)--V           0.951475          1.472272
  45         (A1)--V           0.999593          2.394719
  46         (B2)--V           1.046224          2.034159
  47         (B1)--V           1.183815          1.944150
  48         (A1)--V           1.228589          2.294027
  49         (B1)--V           1.348330          3.061952
  50         (A2)--V           1.369653          3.599239
  51         (B2)--V           1.384617          3.874217
  52         (B2)--V           1.470143          2.444331
  53         (B1)--V           1.482603          3.194192
  54         (A1)--V           1.487375          3.796858
  55         (A2)--V           1.487991          2.839239
  56         (A1)--V           1.545261          3.847931
  57         (B2)--V           1.683041          4.350985
  58         (B2)--V           1.915357          4.315693
  59         (A1)--V           2.156249          4.818940
  60         (A1)--V           2.440677          4.781082
  61         (B2)--V           2.572057          6.159342
  62         (A2)--V           3.019677          4.171667
  63         (B2)--V           3.043165          4.238611
  64         (A1)--V           3.060608          4.227546
  65         (B1)--V           3.107472          4.264517
  66         (B2)--V           3.113148          4.711816
  67         (A1)--V           3.287029          4.815377
  68         (B1)--V           3.314142          4.562351
  69         (A2)--V           3.399256          4.659997
  70         (B2)--V           3.511615          4.861226
  71         (A1)--V           3.526778          5.508018
 Orbital energies and kinetic energies (beta):
                                 1                 2
   1         (A1)--O        -183.432637        231.876499
   2         (A1)--O         -21.593410         40.828440
   3         (A1)--O         -20.519613         29.206391
   4         (B2)--O         -20.519610         29.206590
   5         (A1)--O         -17.962510         39.559744
   6         (B2)--O         -17.961438         39.566199
   7         (B1)--O         -17.960824         39.556831
   8         (A1)--O          -2.991618          7.996208
   9         (B2)--O          -1.937538          6.373001
  10         (A1)--O          -1.923408          6.572122
  11         (B1)--O          -1.907785          6.769995
  12         (A1)--O          -1.176583          3.338159
  13         (B2)--O          -1.158026          3.511196
  14         (A1)--O          -0.512572          2.296886
  15         (B2)--O          -0.495308          2.795924
  16         (A2)--O          -0.461387          2.122716
  17         (B1)--O          -0.438795          2.100397
  18         (A1)--O          -0.438028          2.646774
  19         (B2)--O          -0.410752          2.351515
  20         (A1)--V          -0.044579          0.475227
  21         (B1)--V           0.016401          0.661804
  22         (A1)--V           0.043334          1.327338
  23         (B2)--V           0.064419          0.300212
  24         (A1)--V           0.092302          0.861247
  25         (B1)--V           0.106242          1.814459
  26         (A1)--V           0.111017          1.012003
  27         (B2)--V           0.136801          1.565760
  28         (A2)--V           0.154713          3.554480
  29         (B1)--V           0.177726          0.876378
  30         (A2)--V           0.178744          0.331275
  31         (A1)--V           0.181774          1.183210
  32         (A1)--V           0.204817          0.624627
  33         (B2)--V           0.248035          1.593823
  34         (B1)--V           0.259386          1.737937
  35         (A1)--V           0.260040          3.206077
  36         (A1)--V           0.389920          1.573790
  37         (B2)--V           0.407958          2.277505
  38         (A1)--V           0.712769          3.532446
  39         (A1)--V           0.815148          3.884850
  40         (B1)--V           0.828890          4.083768
  41         (B2)--V           0.836790          3.627039
  42         (A2)--V           0.854720          4.060858
  43         (A1)--V           0.917983          3.891862
  44         (B1)--V           0.951475          1.472272
  45         (A1)--V           0.999593          2.394719
  46         (B2)--V           1.046224          2.034159
  47         (B1)--V           1.183815          1.944150
  48         (A1)--V           1.228589          2.294027
  49         (B1)--V           1.348330          3.061952
  50         (A2)--V           1.369653          3.599239
  51         (B2)--V           1.384617          3.874217
  52         (B2)--V           1.470143          2.444331
  53         (B1)--V           1.482603          3.194192
  54         (A1)--V           1.487375          3.796858
  55         (A2)--V           1.487991          2.839239
  56         (A1)--V           1.545261          3.847931
  57         (B2)--V           1.683041          4.350985
  58         (B2)--V           1.915357          4.315693
  59         (A1)--V           2.156249          4.818940
  60         (A1)--V           2.440677          4.781082
  61         (B2)--V           2.572057          6.159342
  62         (A2)--V           3.019677          4.171667
  63         (B2)--V           3.043165          4.238611
  64         (A1)--V           3.060608          4.227546
  65         (B1)--V           3.107472          4.264517
  66         (B2)--V           3.113148          4.711816
  67         (A1)--V           3.287029          4.815377
  68         (B1)--V           3.314142          4.562351
  69         (A2)--V           3.399256          4.659997
  70         (B2)--V           3.511615          4.861226
  71         (A1)--V           3.526778          5.508018
 Total kinetic energy from orbitals= 9.973511727551D+02
                          Isotropic Fermi Contact Couplings
        Atom                 a.u.       MegaHertz       Gauss      10(-4) cm-1
     1  Ti(47)             0.00000      -0.00000      -0.00000      -0.00000
     2  O(17)              0.00000      -0.00000      -0.00000      -0.00000
     3  O(17)              0.00000      -0.00000      -0.00000      -0.00000
 --------------------------------------------------------
       Center         ----  Spin Dipole Couplings  ----
                      3XX-RR        3YY-RR        3ZZ-RR
 --------------------------------------------------------
     1   Atom        0.000000      0.000000      0.000000
     2   Atom        0.000000      0.000000      0.000000
     3   Atom        0.000000      0.000000      0.000000
 --------------------------------------------------------
                        XY            XZ            YZ
 --------------------------------------------------------
     1   Atom        0.000000      0.000000      0.000000
     2   Atom        0.000000      0.000000      0.000000
     3   Atom        0.000000      0.000000      0.000000
 --------------------------------------------------------


 ---------------------------------------------------------------------------------
              Anisotropic Spin Dipole Couplings in Principal Axis System
 ---------------------------------------------------------------------------------

       Atom             a.u.   MegaHertz   Gauss  10(-4) cm-1        Axes

              Baa     0.0000    -0.000    -0.000    -0.000  1.0000  0.0000  0.0000
     1 Ti(47) Bbb     0.0000    -0.000    -0.000    -0.000 -0.0000  1.0000  0.0000
              Bcc     0.0000    -0.000    -0.000    -0.000  0.0000  0.0000  1.0000
 
              Baa     0.0000    -0.000    -0.000    -0.000  1.0000  0.0000  0.0000
     2 O(17)  Bbb     0.0000    -0.000    -0.000    -0.000 -0.0000  1.0000  0.0000
              Bcc     0.0000    -0.000    -0.000    -0.000  0.0000  0.0000  1.0000
 
              Baa     0.0000    -0.000    -0.000    -0.000  1.0000  0.0000  0.0000
     3 O(17)  Bbb     0.0000    -0.000    -0.000    -0.000 -0.0000  1.0000  0.0000
              Bcc     0.0000    -0.000    -0.000    -0.000  0.0000  0.0000  1.0000
 

 ---------------------------------------------------------------------------------


 Test job not archived.
 1\1\GINC-SMP-N219\SP\UHF\CC-pVDZ\O2Ti1\BLZ11\26-Feb-2025\0\\# SP UHF/c
 c-pVDZ Pop=(Full) scf=tight IOp(6/27=122)\\TiO2\\0,1\Ti,0,0.,0.,0.4016
 28\O,0,0.,1.359439,-0.516671\O,0,0.,-1.359439,-0.516671\\Version=ES64L
 -G16RevC.01\State=1-A1\HF=-998.1287563\S2=0.\S2-1=0.\S2A=0.\RMSD=6.632
 e-09\Dipole=0.,0.,3.1345182\Quadrupole=3.9634807,-7.9069875,3.9435068,
 0.,0.,0.\PG=C02V [C2(Ti1),SGV(O2)]\\@


 Experience is what you get when you don't get what you want.
 -- Dan Stanford
 Job cpu time:       0 days  0 hours  0 minutes  1.9 seconds.
 Elapsed time:       0 days  0 hours  0 minutes  1.9 seconds.
 File lengths (MBytes):  RWF=     10 Int=      0 D2E=      0 Chk=      1 Scr=      1
 Normal termination of Gaussian 16 at Wed Feb 26 14:36:45 2025.
/var/spool/slurmd/job18106891/slurm_script: line 22: crc-job-stats.py: command not found
