 Entering Gaussian System, Link 0=g16
 Initial command:
 /software/rhel9/manual/install/gaussian/c01/avx2/tar/g16/l1.exe "/scratch/slurm-21787742/Gau-2737952.inp" -scrdir="/scratch/slurm-21787742/"
 Entering Link 1 = /software/rhel9/manual/install/gaussian/c01/avx2/tar/g16/l1.exe PID=   2737953.
  
 Copyright (c) 1988-2019, Gaussian, Inc.  All Rights Reserved.
  
 This is part of the Gaussian(R) 16 program.  It is based on
 the Gaussian(R) 09 system (copyright 2009, Gaussian, Inc.),
 the Gaussian(R) 03 system (copyright 2003, Gaussian, Inc.),
 the Gaussian(R) 98 system (copyright 1998, Gaussian, Inc.),
 the Gaussian(R) 94 system (copyright 1995, Gaussian, Inc.),
 the Gaussian 92(TM) system (copyright 1992, Gaussian, Inc.),
 the Gaussian 90(TM) system (copyright 1990, Gaussian, Inc.),
 the Gaussian 88(TM) system (copyright 1988, Gaussian, Inc.),
 the Gaussian 86(TM) system (copyright 1986, Carnegie Mellon
 University), and the Gaussian 82(TM) system (copyright 1983,
 Carnegie Mellon University). Gaussian is a federally registered
 trademark of Gaussian, Inc.
  
 This software contains proprietary and confidential information,
 including trade secrets, belonging to Gaussian, Inc.
  
 This software is provided under written license and may be
 used, copied, transmitted, or stored only in accord with that
 written license.
  
 The following legend is applicable only to US Government
 contracts under FAR:
  
                    RESTRICTED RIGHTS LEGEND
  
 Use, reproduction and disclosure by the US Government is
 subject to restrictions as set forth in subparagraphs (a)
 and (c) of the Commercial Computer Software - Restricted
 Rights clause in FAR 52.227-19.
  
 Gaussian, Inc.
 340 Quinnipiac St., Bldg. 40, Wallingford CT 06492
  
  
 ---------------------------------------------------------------
 Warning -- This program may not be used in any manner that
 competes with the business of Gaussian, Inc. or will provide
 assistance to any competitor of Gaussian, Inc.  The licensee
 of this program is prohibited from giving any competitor of
 Gaussian, Inc. access to this program.  By using this program,
 the user acknowledges that Gaussian, Inc. is engaged in the
 business of creating and licensing software in the field of
 computational chemistry and represents and warrants to the
 licensee that it is not a competitor of Gaussian, Inc. and that
 it will not use this program in any manner prohibited above.
 ---------------------------------------------------------------
  

 Cite this work as:
 Gaussian 16, Revision C.01,
 M. J. Frisch, G. W. Trucks, H. B. Schlegel, G. E. Scuseria, 
 M. A. Robb, J. R. Cheeseman, G. Scalmani, V. Barone, 
 G. A. Petersson, H. Nakatsuji, X. Li, M. Caricato, A. V. Marenich, 
 J. Bloino, B. G. Janesko, R. Gomperts, B. Mennucci, H. P. Hratchian, 
 J. V. Ortiz, A. F. Izmaylov, J. L. Sonnenberg, D. Williams-Young, 
 F. Ding, F. Lipparini, F. Egidi, J. Goings, B. Peng, A. Petrone, 
 T. Henderson, D. Ranasinghe, V. G. Zakrzewski, J. Gao, N. Rega, 
 G. Zheng, W. Liang, M. Hada, M. Ehara, K. Toyota, R. Fukuda, 
 J. Hasegawa, M. Ishida, T. Nakajima, Y. Honda, O. Kitao, H. Nakai, 
 T. Vreven, K. Throssell, J. A. Montgomery, Jr., J. E. Peralta, 
 F. Ogliaro, M. J. Bearpark, J. J. Heyd, E. N. Brothers, K. N. Kudin, 
 V. N. Staroverov, T. A. Keith, R. Kobayashi, J. Normand, 
 K. Raghavachari, A. P. Rendell, J. C. Burant, S. S. Iyengar, 
 J. Tomasi, M. Cossi, J. M. Millam, M. Klene, C. Adamo, R. Cammi, 
 J. W. Ochterski, R. L. Martin, K. Morokuma, O. Farkas, 
 J. B. Foresman, and D. J. Fox, Gaussian, Inc., Wallingford CT, 2019.
 
 ******************************************
 Gaussian 16:  ES64L-G16RevC.01  3-Jul-2019
                18-Dec-2025 
 ******************************************
 ----------------------------------------------------
 # SP ROHF/cc-pVTZ Pop=(Full) scf=tight IOp(6/27=122)
 ----------------------------------------------------
 1/38=1,172=1/1;
 2/12=2,17=6,18=5,40=1/2;
 3/5=16,6=1,11=2,25=1,30=1,116=101/1,2,3;
 4//1;
 5/5=2,32=2,38=5/2;
 6/7=3,27=122,28=1/1;
 99/5=1,9=1/99;
 ----
 TiO2
 ----
 Symbolic Z-matrix:
 Charge =  0 Multiplicity = 1
 Ti                    0.        0.        0.40163 
 O                     0.        1.35944  -0.51667 
 O                     0.       -1.35944  -0.51667 
 
                          Input orientation:                          
 ---------------------------------------------------------------------
 Center     Atomic      Atomic             Coordinates (Angstroms)
 Number     Number       Type             X           Y           Z
 ---------------------------------------------------------------------
      1         22           0        0.000000    0.000000    0.401628
      2          8           0        0.000000    1.359439   -0.516671
      3          8           0        0.000000   -1.359439   -0.516671
 ---------------------------------------------------------------------
                    Distance matrix (angstroms):
                    1          2          3
     1  Ti   0.000000
     2  O    1.640533   0.000000
     3  O    1.640533   2.718878   0.000000
 Stoichiometry    O2Ti
 Framework group  C2V[C2(Ti),SGV(O2)]
 Deg. of freedom     2
 Full point group                 C2V     NOp   4
 Largest Abelian subgroup         C2V     NOp   4
 Largest concise Abelian subgroup C2      NOp   2
                         Standard orientation:                         
 ---------------------------------------------------------------------
 Center     Atomic      Atomic             Coordinates (Angstroms)
 Number     Number       Type             X           Y           Z
 ---------------------------------------------------------------------
      1         22           0        0.000000   -0.000000    0.386652
      2          8           0        0.000000    1.359439   -0.531647
      3          8           0       -0.000000   -1.359439   -0.531647
 ---------------------------------------------------------------------
 Rotational constants (GHZ):          31.2333884           8.5484195           6.7115126
 Standard basis: CC-pVTZ (5D, 7F)
 There are    61 symmetry adapted cartesian basis functions of A1  symmetry.
 There are    20 symmetry adapted cartesian basis functions of A2  symmetry.
 There are    30 symmetry adapted cartesian basis functions of B1  symmetry.
 There are    43 symmetry adapted cartesian basis functions of B2  symmetry.
 There are    48 symmetry adapted basis functions of A1  symmetry.
 There are    18 symmetry adapted basis functions of A2  symmetry.
 There are    26 symmetry adapted basis functions of B1  symmetry.
 There are    36 symmetry adapted basis functions of B2  symmetry.
   128 basis functions,   458 primitive gaussians,   154 cartesian basis functions
    19 alpha electrons       19 beta electrons
       nuclear repulsion energy       125.9989870249 Hartrees.
 NAtoms=    3 NActive=    3 NUniq=    2 SFac= 2.25D+00 NAtFMM=   60 NAOKFM=F Big=F
 Integral buffers will be    131072 words long.
 Raffenetti 2 integral format.
 Two-electron integral symmetry is turned on.
 One-electron integrals computed using PRISM.
 NBasis=   128 RedAO= T EigKep=  7.33D-04  NBF=    48    18    26    36
 NBsUse=   128 1.00D-06 EigRej= -1.00D+00 NBFU=    48    18    26    36
 ExpMin= 2.55D-02 ExpMax= 3.01D+06 ExpMxC= 3.43D+03 IAcc=3 IRadAn=         5 AccDes= 0.00D+00
 Harris functional with IExCor=  205 and IRadAn=       5 diagonalized for initial guess.
 HarFok:  IExCor=  205 AccDes= 0.00D+00 IRadAn=         5 IDoV= 1 UseB2=F ITyADJ=14
 ICtDFT=  3500011 ScaDFX=  1.000000  1.000000  1.000000  1.000000
 FoFCou: FMM=F IPFlag=           0 FMFlag=      100000 FMFlg1=           0
         NFxFlg=           0 DoJE=T BraDBF=F KetDBF=T FulRan=T
         wScrn=  0.000000 ICntrl=       500 IOpCl=  0 I1Cent=   200000004 NGrid=           0
         NMat0=    1 NMatS0=      1 NMatT0=    0 NMatD0=    1 NMtDS0=    0 NMtDT0=    0
 Petite list used in FoFCou.
 Initial guess orbital symmetries:
       Occupied  (A1) (A1) (B2) (A1) (B2) (A1) (B1) (A1) (B2) (A1)
                 (B1) (A1) (B2) (A1) (B2) (A2) (B1) (A1) (B2)
       Virtual   (A1) (B1) (A1) (A2) (B2) (A1) (B1) (A1) (B2) (A1)
                 (B1) (A2) (A1) (A1) (B1) (B2) (A1) (B2) (A1) (B1)
                 (B2) (A1) (B1) (A2) (A1) (A1) (B2) (A1) (B2) (A2)
                 (B1) (B2) (A1) (B1) (A1) (B1) (B2) (A2) (B2) (A1)
                 (A2) (A1) (B2) (B2) (A1) (B1) (A1) (B1) (A2) (B2)
                 (A1) (B1) (A1) (B2) (A1) (B1) (B2) (A2) (A1) (A1)
                 (B2) (B1) (A1) (A2) (B2) (A1) (A2) (B1) (A1) (B2)
                 (B1) (A1) (B2) (A2) (B1) (B2) (A1) (A1) (A2) (B1)
                 (B2) (A1) (B2) (A2) (B2) (B1) (A1) (B1) (B2) (A1)
                 (A2) (A2) (B2) (A1) (B1) (A1) (B2) (A2) (B2) (A1)
                 (B1) (B1) (A2) (A1) (B2) (A1) (B2) (B2) (A1)
 The electronic state of the initial guess is 1-A1.
 Keep R1 and R2 ints in memory in symmetry-blocked form, NReq=42733733.
 Requested convergence on RMS density matrix=1.00D-08 within 128 cycles.
 Requested convergence on MAX density matrix=1.00D-06.
 Requested convergence on             energy=1.00D-06.
 No special actions if energy rises.
 SCF Done:  E(ROHF) =  -998.179115912     A.U. after   15 cycles
            NFock= 15  Conv=0.88D-08     -V/T= 2.0003
 <Sx>= 0.0000 <Sy>= 0.0000 <Sz>= 0.0000 <S**2>=-0.0000 S=-0.0000
 <L.S>=  0.00000000000    
 Annihilation of the first spin contaminant:
 S**2 before annihilation    -0.0000,   after     0.0000

 **********************************************************************

            Population analysis using the SCF Density.

 **********************************************************************

 Orbital symmetries:
       Occupied  (A1) (A1) (A1) (B2) (A1) (B2) (B1) (A1) (B2) (A1)
                 (B1) (A1) (B2) (A1) (B2) (A2) (B1) (A1) (B2)
       Virtual   (A1) (B1) (A1) (B2) (A1) (B1) (A1) (B2) (A2) (A2)
                 (B1) (A1) (A1) (B1) (B2) (A1) (A1) (B2) (A1) (B1)
                 (B2) (A1) (B1) (A2) (A1) (A1) (B2) (A1) (B2) (B1)
                 (B2) (A1) (A2) (B1) (A1) (B1) (A2) (B2) (B2) (A1)
                 (A1) (B2) (A2) (B2) (A1) (A1) (B1) (B1) (A2) (A1)
                 (B1) (B2) (A1) (B2) (A1) (B1) (B2) (A2) (A1) (A1)
                 (B2) (B1) (A1) (A2) (A1) (B2) (A2) (B1) (A1) (B2)
                 (B1) (A1) (A2) (B1) (B2) (B2) (A1) (A2) (A1) (B1)
                 (B2) (A1) (B2) (A2) (B2) (B1) (A1) (B1) (B2) (A1)
                 (A2) (A2) (B2) (B1) (A1) (A1) (B2) (A2) (B2) (A1)
                 (B1) (B1) (A2) (B2) (A1) (A1) (B2) (B2) (A1)
 The electronic state is 1-A1.
 Alpha  occ. eigenvalues -- -183.39250 -21.56817 -20.50719 -20.50718 -17.93588
 Alpha  occ. eigenvalues --  -17.93485 -17.93404  -2.98208  -1.92627  -1.91474
 Alpha  occ. eigenvalues --   -1.90155  -1.16946  -1.15130  -0.50770  -0.49184
 Alpha  occ. eigenvalues --   -0.45773  -0.43712  -0.43676  -0.40850
 Alpha virt. eigenvalues --   -0.04533   0.01664   0.04467   0.06063   0.07436
 Alpha virt. eigenvalues --    0.09955   0.10483   0.13158   0.15847   0.17301
 Alpha virt. eigenvalues --    0.17343   0.17756   0.18809   0.22204   0.22692
 Alpha virt. eigenvalues --    0.24746   0.32306   0.33994   0.44313   0.57424
 Alpha virt. eigenvalues --    0.61413   0.61566   0.65486   0.65650   0.68463
 Alpha virt. eigenvalues --    0.77776   0.81856   0.86418   0.88335   0.91358
 Alpha virt. eigenvalues --    0.93223   0.96233   0.96412   0.98788   1.04849
 Alpha virt. eigenvalues --    1.08066   1.13219   1.15309   1.39666   1.52668
 Alpha virt. eigenvalues --    1.73411   1.73850   1.80208   1.88939   1.89980
 Alpha virt. eigenvalues --    1.92913   1.99352   2.01115   2.08668   2.10141
 Alpha virt. eigenvalues --    2.16057   2.18900   2.21312   2.23096   2.42822
 Alpha virt. eigenvalues --    2.51093   2.51919   2.60926   2.71078   2.93686
 Alpha virt. eigenvalues --    3.03832   3.19909   3.21201   3.30865   3.46627
 Alpha virt. eigenvalues --    3.46760   3.50798   3.57314   3.67660   3.69036
 Alpha virt. eigenvalues --    3.69222   3.73138   3.73589   3.74432   3.78725
 Alpha virt. eigenvalues --    3.80519   3.86829   4.42865   4.42882   4.44976
 Alpha virt. eigenvalues --    4.54172   5.09421   5.22989   5.63336   5.63875
 Alpha virt. eigenvalues --    5.64088   5.65055   5.72728   5.72989   5.78277
 Alpha virt. eigenvalues --    5.84009   6.03766   6.09866   6.11961   6.12657
 Alpha virt. eigenvalues --    6.45841   6.50575   6.84900   6.86246   6.91139
 Alpha virt. eigenvalues --    6.91685   7.29581   7.29941   7.33541   7.33776
 Alpha virt. eigenvalues --    7.55940   7.64963   9.96321  10.10946
     Molecular Orbital Coefficients:
                           1         2         3         4         5
                        (A1)--O   (A1)--O   (A1)--O   (B2)--O   (A1)--O
     Eigenvalues --  -183.39250 -21.56817 -20.50719 -20.50718 -17.93588
   1 1   Ti 1S          0.99878  -0.29571  -0.00001   0.00000  -0.00087
   2        2S          0.00429   1.04236  -0.00010   0.00000   0.00303
   3        3S          0.00029  -0.00243  -0.00021   0.00000   0.00037
   4        4S         -0.00001  -0.00014  -0.00228   0.00000   0.00027
   5        5S         -0.00000  -0.00031  -0.00056   0.00000   0.00017
   6        6S         -0.00008   0.00190  -0.00048   0.00000   0.00014
   7        7S          0.00000  -0.00010   0.00015   0.00000   0.00001
   8        8PX         0.00000   0.00000   0.00000   0.00000   0.00000
   9        8PY         0.00000   0.00000   0.00000   0.00011   0.00000
  10        8PZ         0.00000  -0.00311  -0.00007   0.00000   0.99960
  11        9PX         0.00000   0.00000   0.00000   0.00000   0.00000
  12        9PY         0.00000   0.00000   0.00000   0.00071   0.00000
  13        9PZ         0.00001   0.00032  -0.00037   0.00000   0.00054
  14       10PX         0.00000   0.00000   0.00000   0.00000   0.00000
  15       10PY         0.00000   0.00000   0.00000   0.00099   0.00000
  16       10PZ        -0.00001   0.00030  -0.00071   0.00000   0.00015
  17       11PX         0.00000   0.00000   0.00000   0.00000   0.00000
  18       11PY         0.00000   0.00000   0.00000  -0.00112   0.00000
  19       11PZ         0.00000   0.00001   0.00070   0.00000   0.00001
  20       12PX         0.00000   0.00000   0.00000   0.00000   0.00000
  21       12PY         0.00000   0.00000   0.00000   0.00054   0.00000
  22       12PZ         0.00001   0.00011  -0.00030   0.00000  -0.00072
  23       13PX         0.00000   0.00000   0.00000   0.00000   0.00000
  24       13PY         0.00000   0.00000   0.00000   0.00021   0.00000
  25       13PZ        -0.00000  -0.00003  -0.00013   0.00000  -0.00001
  26       14D 0       -0.00000  -0.00006  -0.00000   0.00000   0.00040
  27       14D+1        0.00000   0.00000   0.00000   0.00000   0.00000
  28       14D-1        0.00000   0.00000   0.00000  -0.00054   0.00000
  29       14D+2        0.00000  -0.00003  -0.00029   0.00000  -0.00012
  30       14D-2        0.00000   0.00000   0.00000   0.00000   0.00000
  31       15D 0        0.00000   0.00003  -0.00011   0.00000  -0.00019
  32       15D+1        0.00000   0.00000   0.00000   0.00000   0.00000
  33       15D-1        0.00000   0.00000   0.00000   0.00076   0.00000
  34       15D+2        0.00001  -0.00013   0.00041   0.00000   0.00000
  35       15D-2        0.00000   0.00000   0.00000   0.00000   0.00000
  36       16D 0        0.00000   0.00010   0.00001   0.00000  -0.00059
  37       16D+1        0.00000   0.00000   0.00000   0.00000   0.00000
  38       16D-1        0.00000   0.00000   0.00000   0.00009   0.00000
  39       16D+2       -0.00000  -0.00002   0.00004   0.00000   0.00012
  40       16D-2        0.00000   0.00000   0.00000   0.00000   0.00000
  41       17D 0        0.00000  -0.00001  -0.00001   0.00000   0.00006
  42       17D+1        0.00000   0.00000   0.00000   0.00000   0.00000
  43       17D-1        0.00000   0.00000   0.00000   0.00008   0.00000
  44       17D+2       -0.00000   0.00003   0.00003   0.00000  -0.00002
  45       17D-2        0.00000   0.00000   0.00000   0.00000   0.00000
  46       18F 0        0.00000  -0.00003   0.00007   0.00000  -0.00008
  47       18F+1        0.00000   0.00000   0.00000   0.00000   0.00000
  48       18F-1        0.00000   0.00000   0.00000   0.00007   0.00000
  49       18F+2        0.00000  -0.00006   0.00015   0.00000  -0.00008
  50       18F-2        0.00000   0.00000   0.00000   0.00000   0.00000
  51       18F+3        0.00000   0.00000   0.00000   0.00000   0.00000
  52       18F-3        0.00000   0.00000   0.00000  -0.00011   0.00000
  53       19F 0       -0.00000   0.00005   0.00013   0.00000   0.00001
  54       19F+1        0.00000   0.00000   0.00000   0.00000   0.00000
  55       19F-1        0.00000   0.00000   0.00000   0.00009   0.00000
  56       19F+2       -0.00001   0.00008   0.00014   0.00000   0.00003
  57       19F-2        0.00000   0.00000   0.00000   0.00000   0.00000
  58       19F+3        0.00000   0.00000   0.00000   0.00000   0.00000
  59       19F-3        0.00000   0.00000   0.00000  -0.00003   0.00000
  60       20G 0        0.00000  -0.00003  -0.00007   0.00000  -0.00002
  61       20G+1        0.00000   0.00000   0.00000   0.00000   0.00000
  62       20G-1        0.00000   0.00000   0.00000   0.00004   0.00000
  63       20G+2        0.00000  -0.00004  -0.00007   0.00000  -0.00003
  64       20G-2        0.00000   0.00000   0.00000   0.00000   0.00000
  65       20G+3        0.00000   0.00000   0.00000   0.00000   0.00000
  66       20G-3        0.00000   0.00000   0.00000   0.00013   0.00000
  67       20G+4       -0.00000   0.00001   0.00007   0.00000  -0.00000
  68       20G-4        0.00000   0.00000   0.00000   0.00000   0.00000
  69 2   O  1S          0.00000   0.00003   0.69081   0.69081   0.00004
  70        2S          0.00000  -0.00000  -0.00618  -0.00614  -0.00003
  71        3S         -0.00000   0.00000   0.03049   0.03051   0.00001
  72        4S          0.00002  -0.00023   0.00354   0.00359  -0.00015
  73        5PX         0.00000   0.00000   0.00000   0.00000   0.00000
  74        5PY         0.00000  -0.00001  -0.00045  -0.00046   0.00003
  75        5PZ        -0.00000   0.00000   0.00039   0.00040   0.00000
  76        6PX         0.00000   0.00000   0.00000   0.00000   0.00000
  77        6PY        -0.00001   0.00003   0.00035   0.00038   0.00010
  78        6PZ         0.00000  -0.00003  -0.00027  -0.00029  -0.00001
  79        7PX         0.00000   0.00000   0.00000   0.00000   0.00000
  80        7PY        -0.00001   0.00008  -0.00077  -0.00057   0.00006
  81        7PZ         0.00001  -0.00006   0.00038   0.00048  -0.00005
  82        8D 0        0.00000  -0.00000   0.00003   0.00002  -0.00000
  83        8D+1        0.00000   0.00000   0.00000   0.00000   0.00000
  84        8D-1       -0.00000   0.00000  -0.00006  -0.00005   0.00000
  85        8D+2       -0.00000   0.00000  -0.00003  -0.00005  -0.00000
  86        8D-2        0.00000   0.00000   0.00000   0.00000   0.00000
  87        9D 0       -0.00000  -0.00000   0.00001   0.00004   0.00003
  88        9D+1        0.00000   0.00000   0.00000   0.00000   0.00000
  89        9D-1       -0.00000   0.00002   0.00004   0.00005   0.00002
  90        9D+2       -0.00000   0.00001  -0.00004   0.00007   0.00004
  91        9D-2        0.00000   0.00000   0.00000   0.00000   0.00000
  92       10F 0       -0.00000  -0.00000   0.00002   0.00002   0.00001
  93       10F+1        0.00000   0.00000   0.00000   0.00000   0.00000
  94       10F-1        0.00000  -0.00000   0.00001   0.00002  -0.00001
  95       10F+2        0.00000  -0.00001   0.00002   0.00004   0.00001
  96       10F-2        0.00000   0.00000   0.00000   0.00000   0.00000
  97       10F+3        0.00000   0.00000   0.00000   0.00000   0.00000
  98       10F-3        0.00000   0.00001  -0.00001  -0.00002  -0.00001
  99 3   O  1S          0.00000   0.00003   0.69081  -0.69081   0.00004
 100        2S          0.00000  -0.00000  -0.00618   0.00614  -0.00003
 101        3S         -0.00000   0.00000   0.03049  -0.03051   0.00001
 102        4S          0.00002  -0.00023   0.00354  -0.00359  -0.00015
 103        5PX         0.00000   0.00000   0.00000   0.00000   0.00000
 104        5PY        -0.00000   0.00001   0.00045  -0.00046  -0.00003
 105        5PZ        -0.00000   0.00000   0.00039  -0.00040   0.00000
 106        6PX         0.00000   0.00000   0.00000   0.00000   0.00000
 107        6PY         0.00001  -0.00003  -0.00035   0.00038  -0.00010
 108        6PZ         0.00000  -0.00003  -0.00027   0.00029  -0.00001
 109        7PX         0.00000   0.00000   0.00000   0.00000   0.00000
 110        7PY         0.00001  -0.00008   0.00077  -0.00057  -0.00006
 111        7PZ         0.00001  -0.00006   0.00038  -0.00048  -0.00005
 112        8D 0        0.00000  -0.00000   0.00003  -0.00002  -0.00000
 113        8D+1        0.00000   0.00000   0.00000   0.00000   0.00000
 114        8D-1        0.00000  -0.00000   0.00006  -0.00005  -0.00000
 115        8D+2       -0.00000   0.00000  -0.00003   0.00005  -0.00000
 116        8D-2        0.00000   0.00000   0.00000   0.00000   0.00000
 117        9D 0       -0.00000  -0.00000   0.00001  -0.00004   0.00003
 118        9D+1        0.00000   0.00000   0.00000   0.00000   0.00000
 119        9D-1        0.00000  -0.00002  -0.00004   0.00005  -0.00002
 120        9D+2       -0.00000   0.00001  -0.00004  -0.00007   0.00004
 121        9D-2        0.00000   0.00000   0.00000   0.00000   0.00000
 122       10F 0       -0.00000  -0.00000   0.00002  -0.00002   0.00001
 123       10F+1        0.00000   0.00000   0.00000   0.00000   0.00000
 124       10F-1       -0.00000   0.00000  -0.00001   0.00002   0.00001
 125       10F+2        0.00000  -0.00001   0.00002  -0.00004   0.00001
 126       10F-2        0.00000   0.00000   0.00000   0.00000   0.00000
 127       10F+3        0.00000   0.00000   0.00000   0.00000   0.00000
 128       10F-3       -0.00000  -0.00001   0.00001  -0.00002   0.00001
                           6         7         8         9        10
                        (B2)--O   (B1)--O   (A1)--O   (B2)--O   (A1)--O
     Eigenvalues --   -17.93485 -17.93404  -2.98208  -1.92627  -1.91474
   1 1   Ti 1S          0.00000   0.00000   0.10607   0.00000  -0.00030
   2        2S          0.00000   0.00000  -0.42246   0.00000  -0.00208
   3        3S          0.00000   0.00000   0.60986   0.00000   0.01278
   4        4S          0.00000   0.00000   0.01206   0.00000  -0.00568
   5        5S          0.00000   0.00000   0.00836   0.00000  -0.00665
   6        6S          0.00000   0.00000   0.50151   0.00000  -0.02765
   7        7S          0.00000   0.00000   0.00115   0.00000  -0.00127
   8        8PX         0.00000   0.99955   0.00000   0.00000   0.00000
   9        8PY         0.99968   0.00000   0.00000   0.33320   0.00000
  10        8PZ         0.00000   0.00000  -0.00181   0.00000   0.34020
  11        9PX         0.00000   0.00040   0.00000   0.00000   0.00000
  12        9PY         0.00070   0.00000   0.00000  -0.41437   0.00000
  13        9PZ         0.00000   0.00000   0.02120   0.00000  -0.43025
  14       10PX         0.00000   0.00004   0.00000   0.00000   0.00000
  15       10PY         0.00113   0.00000   0.00000   0.03741   0.00000
  16       10PZ         0.00000   0.00000   0.00065   0.00000   0.03467
  17       11PX         0.00000   0.00001   0.00000   0.00000   0.00000
  18       11PY        -0.00012   0.00000   0.00000  -0.00366   0.00000
  19       11PZ         0.00000   0.00000   0.00139   0.00000  -0.00213
  20       12PX         0.00000  -0.00095   0.00000   0.00000   0.00000
  21       12PY        -0.00048   0.00000   0.00000   0.62569   0.00000
  22       12PZ         0.00000   0.00000   0.00653   0.00000   0.63733
  23       13PX         0.00000  -0.00000   0.00000   0.00000   0.00000
  24       13PY        -0.00002   0.00000   0.00000  -0.00221   0.00000
  25       13PZ         0.00000   0.00000  -0.00064   0.00000  -0.00219
  26       14D 0        0.00000   0.00000   0.00110   0.00000  -0.01437
  27       14D+1        0.00000   0.00034   0.00000   0.00000   0.00000
  28       14D-1        0.00084   0.00000   0.00000  -0.00661   0.00000
  29       14D+2        0.00000   0.00000   0.00573   0.00000  -0.00289
  30       14D-2        0.00000   0.00000   0.00000   0.00000   0.00000
  31       15D 0        0.00000   0.00000  -0.00021   0.00000  -0.00176
  32       15D+1        0.00000  -0.00016   0.00000   0.00000   0.00000
  33       15D-1        0.00026   0.00000   0.00000   0.00326   0.00000
  34       15D+2        0.00000   0.00000  -0.00056   0.00000  -0.00197
  35       15D-2        0.00000   0.00000   0.00000   0.00000   0.00000
  36       16D 0        0.00000   0.00000  -0.00015   0.00000  -0.00358
  37       16D+1        0.00000  -0.00053   0.00000   0.00000   0.00000
  38       16D-1       -0.00071   0.00000   0.00000  -0.00689   0.00000
  39       16D+2        0.00000   0.00000   0.00750   0.00000   0.00327
  40       16D-2        0.00000   0.00000   0.00000   0.00000   0.00000
  41       17D 0        0.00000   0.00000   0.00001   0.00000  -0.00007
  42       17D+1        0.00000   0.00005   0.00000   0.00000   0.00000
  43       17D-1       -0.00003   0.00000   0.00000  -0.00017   0.00000
  44       17D+2        0.00000   0.00000   0.00012   0.00000   0.00021
  45       17D-2        0.00000   0.00000   0.00000   0.00000   0.00000
  46       18F 0        0.00000   0.00000  -0.00033   0.00000   0.00132
  47       18F+1        0.00000  -0.00004   0.00000   0.00000   0.00000
  48       18F-1        0.00014   0.00000   0.00000  -0.00420   0.00000
  49       18F+2        0.00000   0.00000  -0.00039   0.00000   0.00057
  50       18F-2        0.00000   0.00000   0.00000   0.00000   0.00000
  51       18F+3        0.00000   0.00007   0.00000   0.00000   0.00000
  52       18F-3        0.00006   0.00000   0.00000  -0.00195   0.00000
  53       19F 0        0.00000   0.00000  -0.00006   0.00000   0.00159
  54       19F+1        0.00000  -0.00001   0.00000   0.00000   0.00000
  55       19F-1       -0.00015   0.00000   0.00000  -0.00369   0.00000
  56       19F+2        0.00000   0.00000  -0.00017   0.00000   0.00183
  57       19F-2        0.00000   0.00000   0.00000   0.00000   0.00000
  58       19F+3        0.00000   0.00000   0.00000   0.00000   0.00000
  59       19F-3        0.00015   0.00000   0.00000  -0.00070   0.00000
  60       20G 0        0.00000   0.00000  -0.00051   0.00000  -0.00066
  61       20G+1        0.00000  -0.00000   0.00000   0.00000   0.00000
  62       20G-1       -0.00003   0.00000   0.00000  -0.00081   0.00000
  63       20G+2        0.00000   0.00000  -0.00070   0.00000  -0.00106
  64       20G-2        0.00000   0.00000   0.00000   0.00000   0.00000
  65       20G+3        0.00000  -0.00002   0.00000   0.00000   0.00000
  66       20G-3       -0.00009   0.00000   0.00000  -0.00122   0.00000
  67       20G+4        0.00000   0.00000   0.00018   0.00000   0.00028
  68       20G-4        0.00000   0.00000   0.00000   0.00000   0.00000
  69 2   O  1S         -0.00006   0.00000  -0.00566   0.02680  -0.01893
  70        2S          0.00001   0.00000   0.01221  -0.06259   0.04391
  71        3S         -0.00006   0.00000   0.00239  -0.01523   0.01079
  72        4S          0.00094   0.00000   0.00678  -0.02611   0.01845
  73        5PX         0.00000   0.00003   0.00000   0.00000   0.00000
  74        5PY         0.00002   0.00000  -0.00491   0.01762  -0.01654
  75        5PZ         0.00000   0.00000   0.00332  -0.01591   0.00514
  76        6PX         0.00000   0.00005   0.00000   0.00000   0.00000
  77        6PY        -0.00025   0.00000  -0.00801   0.02492  -0.02299
  78        6PZ         0.00016   0.00000   0.00546  -0.02239   0.00697
  79        7PX         0.00000   0.00001   0.00000   0.00000   0.00000
  80        7PY        -0.00040   0.00000  -0.00246   0.00524  -0.00609
  81        7PZ         0.00026   0.00000   0.00158  -0.00637   0.00071
  82        8D 0        0.00000   0.00000  -0.00004  -0.00029  -0.00061
  83        8D+1        0.00000  -0.00000   0.00000   0.00000   0.00000
  84        8D-1        0.00001   0.00000  -0.00076   0.00225  -0.00123
  85        8D+2        0.00001   0.00000  -0.00057   0.00131  -0.00138
  86        8D-2        0.00000   0.00000   0.00000   0.00000   0.00000
  87        9D 0       -0.00003   0.00000  -0.00012  -0.00074  -0.00209
  88        9D+1        0.00000   0.00002   0.00000   0.00000   0.00000
  89        9D-1       -0.00016   0.00000  -0.00257   0.00634  -0.00309
  90        9D+2       -0.00014   0.00000  -0.00180   0.00362  -0.00392
  91        9D-2        0.00000  -0.00003   0.00000   0.00000   0.00000
  92       10F 0       -0.00002   0.00000  -0.00041   0.00077  -0.00078
  93       10F+1        0.00000   0.00000   0.00000   0.00000   0.00000
  94       10F-1       -0.00000   0.00000  -0.00025   0.00073   0.00030
  95       10F+2       -0.00003   0.00000  -0.00071   0.00141  -0.00099
  96       10F-2        0.00000  -0.00001   0.00000   0.00000   0.00000
  97       10F+3        0.00000  -0.00001   0.00000   0.00000   0.00000
  98       10F-3        0.00002   0.00000   0.00043  -0.00072   0.00086
  99 3   O  1S          0.00006   0.00000  -0.00566  -0.02680  -0.01893
 100        2S         -0.00001   0.00000   0.01221   0.06259   0.04391
 101        3S          0.00006   0.00000   0.00239   0.01523   0.01079
 102        4S         -0.00094   0.00000   0.00678   0.02611   0.01845
 103        5PX         0.00000   0.00003   0.00000   0.00000   0.00000
 104        5PY         0.00002   0.00000   0.00491   0.01762   0.01654
 105        5PZ        -0.00000   0.00000   0.00332   0.01591   0.00514
 106        6PX         0.00000   0.00005   0.00000   0.00000   0.00000
 107        6PY        -0.00025   0.00000   0.00801   0.02492   0.02299
 108        6PZ        -0.00016   0.00000   0.00546   0.02239   0.00697
 109        7PX         0.00000   0.00001   0.00000   0.00000   0.00000
 110        7PY        -0.00040   0.00000   0.00246   0.00524   0.00609
 111        7PZ        -0.00026   0.00000   0.00158   0.00637   0.00071
 112        8D 0       -0.00000   0.00000  -0.00004   0.00029  -0.00061
 113        8D+1        0.00000  -0.00000   0.00000   0.00000   0.00000
 114        8D-1        0.00001   0.00000   0.00076   0.00225   0.00123
 115        8D+2       -0.00001   0.00000  -0.00057  -0.00131  -0.00138
 116        8D-2        0.00000  -0.00000   0.00000   0.00000   0.00000
 117        9D 0        0.00003   0.00000  -0.00012   0.00074  -0.00209
 118        9D+1        0.00000   0.00002   0.00000   0.00000   0.00000
 119        9D-1       -0.00016   0.00000   0.00257   0.00634   0.00309
 120        9D+2        0.00014   0.00000  -0.00180  -0.00362  -0.00392
 121        9D-2        0.00000   0.00003   0.00000   0.00000   0.00000
 122       10F 0        0.00002   0.00000  -0.00041  -0.00077  -0.00078
 123       10F+1        0.00000   0.00000   0.00000   0.00000   0.00000
 124       10F-1       -0.00000   0.00000   0.00025   0.00073  -0.00030
 125       10F+2        0.00003   0.00000  -0.00071  -0.00141  -0.00099
 126       10F-2        0.00000   0.00001   0.00000   0.00000   0.00000
 127       10F+3        0.00000  -0.00001   0.00000   0.00000   0.00000
 128       10F-3        0.00002   0.00000  -0.00043  -0.00072  -0.00086
                          11        12        13        14        15
                        (B1)--O   (A1)--O   (B2)--O   (A1)--O   (B2)--O
     Eigenvalues --    -1.90155  -1.16946  -1.15130  -0.50770  -0.49184
   1 1   Ti 1S          0.00000  -0.01616   0.00000  -0.00964   0.00000
   2        2S          0.00000   0.06006   0.00000   0.03208   0.00000
   3        3S          0.00000  -0.13993   0.00000  -0.08624   0.00000
   4        4S          0.00000   0.11645   0.00000   0.11107   0.00000
   5        5S          0.00000   0.06008   0.00000   0.03016   0.00000
   6        6S          0.00000  -0.05586   0.00000  -0.04574   0.00000
   7        7S          0.00000   0.01224   0.00000  -0.01526   0.00000
   8        8PX         0.34796   0.00000   0.00000   0.00000   0.00000
   9        8PY         0.00000   0.00000   0.10143   0.00000  -0.04661
  10        8PZ         0.00000  -0.07001   0.00000   0.00273   0.00000
  11        9PX        -0.43986   0.00000   0.00000   0.00000   0.00000
  12        9PY         0.00000   0.00000  -0.11819   0.00000   0.04364
  13        9PZ         0.00000   0.07894   0.00000  -0.00976   0.00000
  14       10PX         0.03022   0.00000   0.00000   0.00000   0.00000
  15       10PY         0.00000   0.00000  -0.01993   0.00000   0.00112
  16       10PZ         0.00000   0.00864   0.00000  -0.02155   0.00000
  17       11PX        -0.00125   0.00000   0.00000   0.00000   0.00000
  18       11PY         0.00000   0.00000   0.02138   0.00000   0.04612
  19       11PZ         0.00000  -0.01060   0.00000   0.03930   0.00000
  20       12PX         0.65419   0.00000   0.00000   0.00000   0.00000
  21       12PY         0.00000   0.00000   0.21572   0.00000  -0.11589
  22       12PZ         0.00000  -0.14955   0.00000   0.00249   0.00000
  23       13PX        -0.00197   0.00000   0.00000   0.00000   0.00000
  24       13PY         0.00000   0.00000   0.00262   0.00000   0.02482
  25       13PZ         0.00000  -0.00153   0.00000   0.01778   0.00000
  26       14D 0        0.00000   0.00221   0.00000  -0.10681   0.00000
  27       14D+1       -0.01284   0.00000   0.00000   0.00000   0.00000
  28       14D-1        0.00000   0.00000  -0.08176   0.00000   0.24187
  29       14D+2        0.00000  -0.05452   0.00000  -0.14012   0.00000
  30       14D-2        0.00000   0.00000   0.00000   0.00000   0.00000
  31       15D 0        0.00000  -0.00649   0.00000  -0.06343   0.00000
  32       15D+1       -0.00076   0.00000   0.00000   0.00000   0.00000
  33       15D-1        0.00000   0.00000  -0.02254   0.00000   0.08248
  34       15D+2        0.00000  -0.02057   0.00000  -0.07627   0.00000
  35       15D-2        0.00000   0.00000   0.00000   0.00000   0.00000
  36       16D 0        0.00000   0.00025   0.00000  -0.10109   0.00000
  37       16D+1       -0.00347   0.00000   0.00000   0.00000   0.00000
  38       16D-1        0.00000   0.00000  -0.07644   0.00000   0.25566
  39       16D+2        0.00000  -0.05414   0.00000  -0.14461   0.00000
  40       16D-2        0.00000   0.00000   0.00000   0.00000   0.00000
  41       17D 0        0.00000  -0.00025   0.00000  -0.01361   0.00000
  42       17D+1       -0.00017   0.00000   0.00000   0.00000   0.00000
  43       17D-1        0.00000   0.00000  -0.00389   0.00000  -0.02039
  44       17D+2        0.00000  -0.00237   0.00000  -0.00240   0.00000
  45       17D-2        0.00000   0.00000   0.00000   0.00000   0.00000
  46       18F 0        0.00000   0.00434   0.00000   0.00608   0.00000
  47       18F+1        0.00072   0.00000   0.00000   0.00000   0.00000
  48       18F-1        0.00000   0.00000   0.00207   0.00000  -0.00637
  49       18F+2        0.00000   0.00835   0.00000   0.00512   0.00000
  50       18F-2        0.00000   0.00000   0.00000   0.00000   0.00000
  51       18F+3       -0.00360   0.00000   0.00000   0.00000   0.00000
  52       18F-3        0.00000   0.00000  -0.00593   0.00000   0.00667
  53       19F 0        0.00000   0.01040   0.00000   0.01038   0.00000
  54       19F+1        0.00025   0.00000   0.00000   0.00000   0.00000
  55       19F-1        0.00000   0.00000   0.00235   0.00000  -0.00878
  56       19F+2        0.00000   0.01411   0.00000   0.00849   0.00000
  57       19F-2        0.00000   0.00000   0.00000   0.00000   0.00000
  58       19F+3       -0.00185   0.00000   0.00000   0.00000   0.00000
  59       19F-3        0.00000   0.00000  -0.00905   0.00000   0.00802
  60       20G 0        0.00000  -0.00125   0.00000   0.00119   0.00000
  61       20G+1        0.00002   0.00000   0.00000   0.00000   0.00000
  62       20G-1        0.00000   0.00000   0.00073   0.00000   0.00156
  63       20G+2        0.00000  -0.00113   0.00000   0.00253   0.00000
  64       20G-2        0.00000   0.00000   0.00000   0.00000   0.00000
  65       20G+3       -0.00063   0.00000   0.00000   0.00000   0.00000
  66       20G-3        0.00000   0.00000   0.00182   0.00000  -0.00114
  67       20G+4        0.00000   0.00037   0.00000   0.00168   0.00000
  68       20G-4        0.00000   0.00000   0.00000   0.00000   0.00000
  69 2   O  1S          0.00000  -0.14967  -0.14947   0.01706  -0.02120
  70        2S          0.00000   0.36566   0.36631  -0.04420   0.05162
  71        3S          0.00000   0.10004   0.10087  -0.01507   0.01818
  72        4S          0.00000   0.24751   0.25026  -0.07712   0.08995
  73        5PX        -0.00680   0.00000   0.00000   0.00000   0.00000
  74        5PY         0.00000  -0.00914  -0.00948  -0.01081   0.20249
  75        5PZ         0.00000   0.01172   0.00464   0.21563  -0.06666
  76        6PX        -0.00952   0.00000   0.00000   0.00000   0.00000
  77        6PY         0.00000  -0.01917  -0.01761  -0.00980   0.25975
  78        6PZ         0.00000   0.02039   0.01033   0.27825  -0.08452
  79        7PX        -0.00419   0.00000   0.00000   0.00000   0.00000
  80        7PY         0.00000  -0.00625  -0.00506  -0.00817   0.18334
  81        7PZ         0.00000   0.00755   0.00593   0.19661  -0.05432
  82        8D 0        0.00000   0.00035  -0.00019   0.00257   0.00138
  83        8D+1       -0.00049   0.00000   0.00000   0.00000   0.00000
  84        8D-1        0.00000  -0.00083  -0.00063  -0.00306   0.00317
  85        8D+2        0.00000  -0.00042  -0.00068   0.00027   0.00302
  86        8D-2        0.00071   0.00000   0.00000   0.00000   0.00000
  87        9D 0        0.00000   0.00071  -0.00056   0.01460   0.00624
  88        9D+1       -0.00172   0.00000   0.00000   0.00000   0.00000
  89        9D-1        0.00000  -0.00574  -0.00443  -0.01286   0.01257
  90        9D+2        0.00000  -0.00366  -0.00244   0.00028   0.01165
  91        9D-2        0.00228   0.00000   0.00000   0.00000   0.00000
  92       10F 0        0.00000  -0.00033  -0.00056  -0.00038   0.00207
  93       10F+1       -0.00010   0.00000   0.00000   0.00000   0.00000
  94       10F-1        0.00000  -0.00052   0.00002  -0.00295  -0.00035
  95       10F+2        0.00000  -0.00080  -0.00061  -0.00148   0.00249
  96       10F-2        0.00061   0.00000   0.00000   0.00000   0.00000
  97       10F+3        0.00054   0.00000   0.00000   0.00000   0.00000
  98       10F-3        0.00000   0.00036   0.00035   0.00004  -0.00166
  99 3   O  1S          0.00000  -0.14967   0.14947   0.01706   0.02120
 100        2S          0.00000   0.36566  -0.36631  -0.04420  -0.05162
 101        3S          0.00000   0.10004  -0.10087  -0.01507  -0.01818
 102        4S          0.00000   0.24751  -0.25026  -0.07712  -0.08995
 103        5PX        -0.00680   0.00000   0.00000   0.00000   0.00000
 104        5PY         0.00000   0.00914  -0.00948   0.01081   0.20249
 105        5PZ         0.00000   0.01172  -0.00464   0.21563   0.06666
 106        6PX        -0.00952   0.00000   0.00000   0.00000   0.00000
 107        6PY         0.00000   0.01917  -0.01761   0.00980   0.25975
 108        6PZ         0.00000   0.02039  -0.01033   0.27825   0.08452
 109        7PX        -0.00419   0.00000   0.00000   0.00000   0.00000
 110        7PY         0.00000   0.00625  -0.00506   0.00817   0.18334
 111        7PZ         0.00000   0.00755  -0.00593   0.19661   0.05432
 112        8D 0        0.00000   0.00035   0.00019   0.00257  -0.00138
 113        8D+1       -0.00049   0.00000   0.00000   0.00000   0.00000
 114        8D-1        0.00000   0.00083  -0.00063   0.00306   0.00317
 115        8D+2        0.00000  -0.00042   0.00068   0.00027  -0.00302
 116        8D-2       -0.00071   0.00000   0.00000   0.00000   0.00000
 117        9D 0        0.00000   0.00071   0.00056   0.01460  -0.00624
 118        9D+1       -0.00172   0.00000   0.00000   0.00000   0.00000
 119        9D-1        0.00000   0.00574  -0.00443   0.01286   0.01257
 120        9D+2        0.00000  -0.00366   0.00244   0.00028  -0.01165
 121        9D-2       -0.00228   0.00000   0.00000   0.00000   0.00000
 122       10F 0        0.00000  -0.00033   0.00056  -0.00038  -0.00207
 123       10F+1       -0.00010   0.00000   0.00000   0.00000   0.00000
 124       10F-1        0.00000   0.00052   0.00002   0.00295  -0.00035
 125       10F+2        0.00000  -0.00080   0.00061  -0.00148  -0.00249
 126       10F-2       -0.00061   0.00000   0.00000   0.00000   0.00000
 127       10F+3        0.00054   0.00000   0.00000   0.00000   0.00000
 128       10F-3        0.00000  -0.00036   0.00035  -0.00004  -0.00166
                          16        17        18        19        20
                        (A2)--O   (B1)--O   (A1)--O   (B2)--O   (A1)--V
     Eigenvalues --    -0.45773  -0.43712  -0.43676  -0.40850  -0.04533
   1 1   Ti 1S          0.00000   0.00000   0.01615   0.00000  -0.01346
   2        2S          0.00000   0.00000  -0.05408   0.00000   0.04001
   3        3S          0.00000   0.00000   0.16153   0.00000  -0.10234
   4        4S          0.00000   0.00000  -0.17450   0.00000   0.23772
   5        5S          0.00000   0.00000  -0.11881   0.00000   0.05210
   6        6S          0.00000   0.00000   0.05531   0.00000  -0.09793
   7        7S          0.00000   0.00000   0.01825   0.00000   0.65735
   8        8PX         0.00000   0.04674   0.00000   0.00000   0.00000
   9        8PY         0.00000   0.00000   0.00000   0.05630   0.00000
  10        8PZ         0.00000   0.00000   0.05674   0.00000   0.04015
  11        9PX         0.00000  -0.06062   0.00000   0.00000   0.00000
  12        9PY         0.00000   0.00000   0.00000  -0.06742   0.00000
  13        9PZ         0.00000   0.00000  -0.05505   0.00000  -0.06612
  14       10PX         0.00000  -0.05823   0.00000   0.00000   0.00000
  15       10PY         0.00000   0.00000   0.00000  -0.04229   0.00000
  16       10PZ         0.00000   0.00000  -0.01238   0.00000  -0.04849
  17       11PX         0.00000   0.10083   0.00000   0.00000   0.00000
  18       11PY         0.00000   0.00000   0.00000   0.08430   0.00000
  19       11PZ         0.00000   0.00000   0.01231   0.00000   0.22026
  20       12PX         0.00000   0.10521   0.00000   0.00000   0.00000
  21       12PY         0.00000   0.00000   0.00000   0.12963   0.00000
  22       12PZ         0.00000   0.00000   0.13757   0.00000   0.08170
  23       13PX         0.00000   0.01759   0.00000   0.00000   0.00000
  24       13PY         0.00000   0.00000   0.00000  -0.00048   0.00000
  25       13PZ         0.00000   0.00000  -0.01025   0.00000   0.35247
  26       14D 0        0.00000   0.00000  -0.10587   0.00000   0.04007
  27       14D+1        0.00000  -0.13201   0.00000   0.00000   0.00000
  28       14D-1        0.00000   0.00000   0.00000  -0.00113   0.00000
  29       14D+2        0.00000   0.00000   0.10541   0.00000   0.07053
  30       14D-2        0.18289   0.00000   0.00000   0.00000   0.00000
  31       15D 0        0.00000   0.00000  -0.05643   0.00000   0.06072
  32       15D+1        0.00000  -0.07147   0.00000   0.00000   0.00000
  33       15D-1        0.00000   0.00000   0.00000   0.03113   0.00000
  34       15D+2        0.00000   0.00000   0.01660   0.00000   0.07193
  35       15D-2        0.12384   0.00000   0.00000   0.00000   0.00000
  36       16D 0        0.00000   0.00000  -0.10129   0.00000   0.04637
  37       16D+1        0.00000  -0.12584   0.00000   0.00000   0.00000
  38       16D-1        0.00000   0.00000   0.00000  -0.00495   0.00000
  39       16D+2        0.00000   0.00000   0.11750   0.00000   0.08007
  40       16D-2        0.18042   0.00000   0.00000   0.00000   0.00000
  41       17D 0        0.00000   0.00000  -0.02408   0.00000   0.12510
  42       17D+1        0.00000  -0.02039   0.00000   0.00000   0.00000
  43       17D-1        0.00000   0.00000   0.00000   0.03553   0.00000
  44       17D+2        0.00000   0.00000  -0.03468   0.00000   0.08279
  45       17D-2        0.03635   0.00000   0.00000   0.00000   0.00000
  46       18F 0        0.00000   0.00000  -0.00417   0.00000  -0.00047
  47       18F+1        0.00000   0.00174   0.00000   0.00000   0.00000
  48       18F-1        0.00000   0.00000   0.00000  -0.01161   0.00000
  49       18F+2        0.00000   0.00000  -0.01178   0.00000  -0.00181
  50       18F-2       -0.00990   0.00000   0.00000   0.00000   0.00000
  51       18F+3        0.00000  -0.01091   0.00000   0.00000   0.00000
  52       18F-3        0.00000   0.00000   0.00000  -0.00856   0.00000
  53       19F 0        0.00000   0.00000  -0.01235   0.00000   0.00353
  54       19F+1        0.00000  -0.00485   0.00000   0.00000   0.00000
  55       19F-1        0.00000   0.00000   0.00000  -0.04471   0.00000
  56       19F+2        0.00000   0.00000  -0.01672   0.00000   0.00611
  57       19F-2       -0.03206   0.00000   0.00000   0.00000   0.00000
  58       19F+3        0.00000  -0.03841   0.00000   0.00000   0.00000
  59       19F-3        0.00000   0.00000   0.00000  -0.02447   0.00000
  60       20G 0        0.00000   0.00000   0.00327   0.00000   0.00026
  61       20G+1        0.00000   0.00187   0.00000   0.00000   0.00000
  62       20G-1        0.00000   0.00000   0.00000   0.00713   0.00000
  63       20G+2        0.00000   0.00000   0.00408   0.00000   0.00030
  64       20G-2        0.00354   0.00000   0.00000   0.00000   0.00000
  65       20G+3        0.00000   0.00690   0.00000   0.00000   0.00000
  66       20G-3        0.00000   0.00000   0.00000   0.00229   0.00000
  67       20G+4        0.00000   0.00000   0.00172   0.00000   0.00076
  68       20G-4       -0.00360   0.00000   0.00000   0.00000   0.00000
  69 2   O  1S          0.00000   0.00000  -0.01590   0.00639   0.01014
  70        2S          0.00000   0.00000   0.03796  -0.01780  -0.02989
  71        3S          0.00000   0.00000   0.01466  -0.00627  -0.00824
  72        4S          0.00000   0.00000   0.06380  -0.01956  -0.02540
  73        5PX         0.20841   0.21555   0.00000   0.00000   0.00000
  74        5PY         0.00000   0.00000   0.22676   0.06122   0.00911
  75        5PZ         0.00000   0.00000  -0.00240   0.23513  -0.00478
  76        6PX         0.26983   0.27861   0.00000   0.00000   0.00000
  77        6PY         0.00000   0.00000   0.29449   0.07796   0.01145
  78        6PZ         0.00000   0.00000  -0.00210   0.29824  -0.00760
  79        7PX         0.20737   0.22613   0.00000   0.00000   0.00000
  80        7PY         0.00000   0.00000   0.22764   0.06657   0.02765
  81        7PZ         0.00000   0.00000   0.00679   0.25144   0.00007
  82        8D 0        0.00000   0.00000   0.00119   0.00218  -0.00060
  83        8D+1        0.00245   0.00168   0.00000   0.00000   0.00000
  84        8D-1        0.00000   0.00000   0.00142  -0.00096   0.00065
  85        8D+2        0.00000   0.00000   0.00249   0.00080   0.00000
  86        8D-2       -0.00297  -0.00272   0.00000   0.00000   0.00000
  87        9D 0        0.00000   0.00000   0.00890   0.01287  -0.00029
  88        9D+1        0.01381   0.01076   0.00000   0.00000   0.00000
  89        9D-1        0.00000   0.00000   0.00774  -0.00553   0.00498
  90        9D+2        0.00000   0.00000   0.01388   0.00489   0.00361
  91        9D-2       -0.01402  -0.01574   0.00000   0.00000   0.00000
  92       10F 0        0.00000   0.00000   0.00112   0.00031   0.00029
  93       10F+1        0.00043  -0.00030   0.00000   0.00000   0.00000
  94       10F-1        0.00000   0.00000  -0.00078  -0.00239   0.00065
  95       10F+2        0.00000   0.00000   0.00175   0.00002   0.00076
  96       10F-2       -0.00259  -0.00195   0.00000   0.00000   0.00000
  97       10F+3       -0.00171  -0.00187   0.00000   0.00000   0.00000
  98       10F-3        0.00000   0.00000  -0.00153  -0.00076  -0.00031
  99 3   O  1S          0.00000   0.00000  -0.01590  -0.00639   0.01014
 100        2S          0.00000   0.00000   0.03796   0.01780  -0.02989
 101        3S          0.00000   0.00000   0.01466   0.00627  -0.00824
 102        4S          0.00000   0.00000   0.06380   0.01956  -0.02540
 103        5PX        -0.20841   0.21555   0.00000   0.00000   0.00000
 104        5PY         0.00000   0.00000  -0.22676   0.06122  -0.00911
 105        5PZ         0.00000   0.00000  -0.00240  -0.23513  -0.00478
 106        6PX        -0.26983   0.27861   0.00000   0.00000   0.00000
 107        6PY         0.00000   0.00000  -0.29449   0.07796  -0.01145
 108        6PZ         0.00000   0.00000  -0.00210  -0.29824  -0.00760
 109        7PX        -0.20737   0.22613   0.00000   0.00000   0.00000
 110        7PY         0.00000   0.00000  -0.22764   0.06657  -0.02765
 111        7PZ         0.00000   0.00000   0.00679  -0.25144   0.00007
 112        8D 0        0.00000   0.00000   0.00119  -0.00218  -0.00060
 113        8D+1       -0.00245   0.00168   0.00000   0.00000   0.00000
 114        8D-1        0.00000   0.00000  -0.00142  -0.00096  -0.00065
 115        8D+2        0.00000   0.00000   0.00249  -0.00080   0.00000
 116        8D-2       -0.00297   0.00272   0.00000   0.00000   0.00000
 117        9D 0        0.00000   0.00000   0.00890  -0.01287  -0.00029
 118        9D+1       -0.01381   0.01076   0.00000   0.00000   0.00000
 119        9D-1        0.00000   0.00000  -0.00774  -0.00553  -0.00498
 120        9D+2        0.00000   0.00000   0.01388  -0.00489   0.00361
 121        9D-2       -0.01402   0.01574   0.00000   0.00000   0.00000
 122       10F 0        0.00000   0.00000   0.00112  -0.00031   0.00029
 123       10F+1       -0.00043  -0.00030   0.00000   0.00000   0.00000
 124       10F-1        0.00000   0.00000   0.00078  -0.00239  -0.00065
 125       10F+2        0.00000   0.00000   0.00175  -0.00002   0.00076
 126       10F-2       -0.00259   0.00195   0.00000   0.00000   0.00000
 127       10F+3        0.00171  -0.00187   0.00000   0.00000   0.00000
 128       10F-3        0.00000   0.00000   0.00153  -0.00076   0.00031
                          21        22        23        24        25
                        (B1)--V   (A1)--V   (B2)--V   (A1)--V   (B1)--V
     Eigenvalues --     0.01664   0.04467   0.06063   0.07436   0.09955
   1 1   Ti 1S          0.00000   0.01161   0.00000   0.00383   0.00000
   2        2S          0.00000  -0.04888   0.00000  -0.10367   0.00000
   3        3S          0.00000   0.05475   0.00000  -0.25957   0.00000
   4        4S          0.00000  -0.03235   0.00000   1.31880   0.00000
   5        5S          0.00000   0.40928   0.00000   3.38647   0.00000
   6        6S          0.00000   0.08645   0.00000   0.13173   0.00000
   7        7S          0.00000   0.10345   0.00000   2.33765   0.00000
   8        8PX         0.03510   0.00000   0.00000   0.00000  -0.04591
   9        8PY         0.00000   0.00000   0.01953   0.00000   0.00000
  10        8PZ         0.00000   0.02180   0.00000  -0.04649   0.00000
  11        9PX        -0.09426   0.00000   0.00000   0.00000  -0.13263
  12        9PY         0.00000   0.00000  -0.15012   0.00000   0.00000
  13        9PZ         0.00000  -0.07641   0.00000  -0.02674   0.00000
  14       10PX        -0.10779   0.00000   0.00000   0.00000  -0.20660
  15       10PY         0.00000   0.00000  -0.20552   0.00000   0.00000
  16       10PZ         0.00000  -0.06733   0.00000   0.03203   0.00000
  17       11PX         0.02412   0.00000   0.00000   0.00000  -1.03368
  18       11PY         0.00000   0.00000  -0.40984   0.00000   0.00000
  19       11PZ         0.00000  -0.17617   0.00000  -0.79338   0.00000
  20       12PX         0.06313   0.00000   0.00000   0.00000  -0.15010
  21       12PY         0.00000   0.00000   0.01127   0.00000   0.00000
  22       12PZ         0.00000   0.03731   0.00000  -0.12064   0.00000
  23       13PX         0.77657   0.00000   0.00000   0.00000   1.26323
  24       13PY         0.00000   0.00000   1.14028   0.00000   0.00000
  25       13PZ         0.00000   0.60039   0.00000   0.65291   0.00000
  26       14D 0        0.00000   0.16782   0.00000  -0.09582   0.00000
  27       14D+1        0.16886   0.00000   0.00000   0.00000  -0.25192
  28       14D-1        0.00000   0.00000   0.03304   0.00000   0.00000
  29       14D+2        0.00000  -0.17629   0.00000  -0.06757   0.00000
  30       14D-2        0.00000   0.00000   0.00000   0.00000   0.00000
  31       15D 0        0.00000   0.12860   0.00000  -0.13970   0.00000
  32       15D+1        0.13090   0.00000   0.00000   0.00000  -0.27140
  33       15D-1        0.00000   0.00000   0.03306   0.00000   0.00000
  34       15D+2        0.00000  -0.13012   0.00000  -0.14916   0.00000
  35       15D-2        0.00000   0.00000   0.00000   0.00000   0.00000
  36       16D 0        0.00000   0.17468   0.00000  -0.11304   0.00000
  37       16D+1        0.17548   0.00000   0.00000   0.00000  -0.28416
  38       16D-1        0.00000   0.00000   0.03379   0.00000   0.00000
  39       16D+2        0.00000  -0.17999   0.00000  -0.06095   0.00000
  40       16D-2        0.00000   0.00000   0.00000   0.00000   0.00000
  41       17D 0        0.00000   0.31975   0.00000  -0.06139   0.00000
  42       17D+1        0.32987   0.00000   0.00000   0.00000  -0.08886
  43       17D-1        0.00000   0.00000   0.47334   0.00000   0.00000
  44       17D+2        0.00000  -0.28756   0.00000   0.14565   0.00000
  45       17D-2        0.00000   0.00000   0.00000   0.00000   0.00000
  46       18F 0        0.00000   0.00072   0.00000  -0.00023   0.00000
  47       18F+1        0.00081   0.00000   0.00000   0.00000  -0.00248
  48       18F-1        0.00000   0.00000   0.00459   0.00000   0.00000
  49       18F+2        0.00000  -0.00183   0.00000   0.00190   0.00000
  50       18F-2        0.00000   0.00000   0.00000   0.00000   0.00000
  51       18F+3       -0.00083   0.00000   0.00000   0.00000   0.00360
  52       18F-3        0.00000   0.00000   0.00007   0.00000   0.00000
  53       19F 0        0.00000   0.02238   0.00000   0.00353   0.00000
  54       19F+1        0.02151   0.00000   0.00000   0.00000  -0.03135
  55       19F-1        0.00000   0.00000   0.00933   0.00000   0.00000
  56       19F+2        0.00000  -0.01385   0.00000   0.02744   0.00000
  57       19F-2        0.00000   0.00000   0.00000   0.00000   0.00000
  58       19F+3        0.01110   0.00000   0.00000   0.00000   0.00323
  59       19F-3        0.00000   0.00000   0.00976   0.00000   0.00000
  60       20G 0        0.00000   0.00041   0.00000  -0.00391   0.00000
  61       20G+1       -0.00007   0.00000   0.00000   0.00000  -0.00011
  62       20G-1        0.00000   0.00000   0.00053   0.00000   0.00000
  63       20G+2        0.00000   0.00108   0.00000  -0.00502   0.00000
  64       20G-2        0.00000   0.00000   0.00000   0.00000   0.00000
  65       20G+3        0.00134   0.00000   0.00000   0.00000  -0.00236
  66       20G-3        0.00000   0.00000   0.00108   0.00000   0.00000
  67       20G+4        0.00000  -0.00248   0.00000   0.00258   0.00000
  68       20G-4        0.00000   0.00000   0.00000   0.00000   0.00000
  69 2   O  1S          0.00000  -0.00887   0.00614   0.00066   0.00000
  70        2S          0.00000   0.02866  -0.03405   0.01201   0.00000
  71        3S          0.00000   0.00883  -0.00773   0.00356   0.00000
  72        4S          0.00000   0.01593   0.02875  -0.13451   0.00000
  73        5PX        -0.00294   0.00000   0.00000   0.00000  -0.05781
  74        5PY         0.00000   0.03696  -0.05418  -0.02835   0.00000
  75        5PZ         0.00000  -0.00995  -0.02771  -0.00683   0.00000
  76        6PX        -0.00387   0.00000   0.00000   0.00000  -0.07294
  77        6PY         0.00000   0.04034  -0.05916  -0.02777   0.00000
  78        6PZ         0.00000  -0.01607  -0.02517  -0.01824   0.00000
  79        7PX         0.00406   0.00000   0.00000   0.00000  -0.10543
  80        7PY         0.00000   0.08207  -0.08872   0.02994   0.00000
  81        7PZ         0.00000  -0.00165  -0.09386  -0.06504   0.00000
  82        8D 0        0.00000   0.00033   0.00054   0.00075   0.00000
  83        8D+1        0.00026   0.00000   0.00000   0.00000   0.00009
  84        8D-1        0.00000  -0.00069   0.00034  -0.00253   0.00000
  85        8D+2        0.00000  -0.00235  -0.00002  -0.00076   0.00000
  86        8D-2        0.00117   0.00000   0.00000   0.00000  -0.00196
  87        9D 0        0.00000   0.00143  -0.00416  -0.00135   0.00000
  88        9D+1        0.00101   0.00000   0.00000   0.00000  -0.00677
  89        9D-1        0.00000   0.00011   0.00381   0.01033   0.00000
  90        9D+2        0.00000  -0.00527  -0.00029   0.00775   0.00000
  91        9D-2        0.00428   0.00000   0.00000   0.00000   0.00140
  92       10F 0        0.00000   0.00041  -0.00038   0.00056   0.00000
  93       10F+1        0.00048   0.00000   0.00000   0.00000  -0.00058
  94       10F-1        0.00000   0.00002   0.00078  -0.00008   0.00000
  95       10F+2        0.00000  -0.00041  -0.00049   0.00083   0.00000
  96       10F-2        0.00021   0.00000   0.00000   0.00000   0.00039
  97       10F+3        0.00088   0.00000   0.00000   0.00000  -0.00049
  98       10F-3        0.00000   0.00103   0.00069  -0.00086   0.00000
  99 3   O  1S          0.00000  -0.00887  -0.00614   0.00066   0.00000
 100        2S          0.00000   0.02866   0.03405   0.01201   0.00000
 101        3S          0.00000   0.00883   0.00773   0.00356   0.00000
 102        4S          0.00000   0.01593  -0.02875  -0.13451   0.00000
 103        5PX        -0.00294   0.00000   0.00000   0.00000  -0.05781
 104        5PY         0.00000  -0.03696  -0.05418   0.02835   0.00000
 105        5PZ         0.00000  -0.00995   0.02771  -0.00683   0.00000
 106        6PX        -0.00387   0.00000   0.00000   0.00000  -0.07294
 107        6PY         0.00000  -0.04034  -0.05916   0.02777   0.00000
 108        6PZ         0.00000  -0.01607   0.02517  -0.01824   0.00000
 109        7PX         0.00406   0.00000   0.00000   0.00000  -0.10543
 110        7PY         0.00000  -0.08207  -0.08872  -0.02994   0.00000
 111        7PZ         0.00000  -0.00165   0.09386  -0.06504   0.00000
 112        8D 0        0.00000   0.00033  -0.00054   0.00075   0.00000
 113        8D+1        0.00026   0.00000   0.00000   0.00000   0.00009
 114        8D-1        0.00000   0.00069   0.00034   0.00253   0.00000
 115        8D+2        0.00000  -0.00235   0.00002  -0.00076   0.00000
 116        8D-2       -0.00117   0.00000   0.00000   0.00000   0.00196
 117        9D 0        0.00000   0.00143   0.00416  -0.00135   0.00000
 118        9D+1        0.00101   0.00000   0.00000   0.00000  -0.00677
 119        9D-1        0.00000  -0.00011   0.00381  -0.01033   0.00000
 120        9D+2        0.00000  -0.00527   0.00029   0.00775   0.00000
 121        9D-2       -0.00428   0.00000   0.00000   0.00000  -0.00140
 122       10F 0        0.00000   0.00041   0.00038   0.00056   0.00000
 123       10F+1        0.00048   0.00000   0.00000   0.00000  -0.00058
 124       10F-1        0.00000  -0.00002   0.00078   0.00008   0.00000
 125       10F+2        0.00000  -0.00041   0.00049   0.00083   0.00000
 126       10F-2       -0.00021   0.00000   0.00000   0.00000  -0.00039
 127       10F+3        0.00088   0.00000   0.00000   0.00000  -0.00049
 128       10F-3        0.00000  -0.00103   0.00069   0.00086   0.00000
                          26        27        28        29        30
                        (A1)--V   (B2)--V   (A2)--V   (A2)--V   (B1)--V
     Eigenvalues --     0.10483   0.13158   0.15847   0.17301   0.17343
   1 1   Ti 1S          0.00044   0.00000   0.00000   0.00000   0.00000
   2        2S          0.04629   0.00000   0.00000   0.00000   0.00000
   3        3S          0.07347   0.00000   0.00000   0.00000   0.00000
   4        4S         -0.18553   0.00000   0.00000   0.00000   0.00000
   5        5S         -1.06460   0.00000   0.00000   0.00000   0.00000
   6        6S          0.05298   0.00000   0.00000   0.00000   0.00000
   7        7S         -1.14220   0.00000   0.00000   0.00000   0.00000
   8        8PX         0.00000   0.00000   0.00000   0.00000  -0.00200
   9        8PY         0.00000   0.06563   0.00000   0.00000   0.00000
  10        8PZ        -0.03441   0.00000   0.00000   0.00000   0.00000
  11        9PX         0.00000   0.00000   0.00000   0.00000   0.10217
  12        9PY         0.00000   0.06278   0.00000   0.00000   0.00000
  13        9PZ        -0.11128   0.00000   0.00000   0.00000   0.00000
  14       10PX         0.00000   0.00000   0.00000   0.00000   0.17629
  15       10PY         0.00000  -0.04499   0.00000   0.00000   0.00000
  16       10PZ        -0.12497   0.00000   0.00000   0.00000   0.00000
  17       11PX         0.00000   0.00000   0.00000   0.00000   0.33447
  18       11PY         0.00000   1.23106   0.00000   0.00000   0.00000
  19       11PZ        -0.89679   0.00000   0.00000   0.00000   0.00000
  20       12PX         0.00000   0.00000   0.00000   0.00000   0.02328
  21       12PY         0.00000   0.17441   0.00000   0.00000   0.00000
  22       12PZ        -0.11236   0.00000   0.00000   0.00000   0.00000
  23       13PX         0.00000   0.00000   0.00000   0.00000  -0.39091
  24       13PY         0.00000  -1.13656   0.00000   0.00000   0.00000
  25       13PZ         1.22042   0.00000   0.00000   0.00000   0.00000
  26       14D 0       -0.15366   0.00000   0.00000   0.00000   0.00000
  27       14D+1        0.00000   0.00000   0.00000   0.00000  -0.21242
  28       14D-1        0.00000   0.16790   0.00000   0.00000   0.00000
  29       14D+2        0.12884   0.00000   0.00000   0.00000   0.00000
  30       14D-2        0.00000   0.00000   0.37868  -0.16603   0.00000
  31       15D 0       -0.18936   0.00000   0.00000   0.00000   0.00000
  32       15D+1        0.00000   0.00000   0.00000   0.00000  -0.35170
  33       15D-1        0.00000   0.01898   0.00000   0.00000   0.00000
  34       15D+2        0.06039   0.00000   0.00000   0.00000   0.00000
  35       15D-2        0.00000   0.00000   0.32691  -0.27076   0.00000
  36       16D 0       -0.18097   0.00000   0.00000   0.00000   0.00000
  37       16D+1        0.00000   0.00000   0.00000   0.00000  -0.27946
  38       16D-1        0.00000   0.21752   0.00000   0.00000   0.00000
  39       16D+2        0.14627   0.00000   0.00000   0.00000   0.00000
  40       16D-2        0.00000   0.00000   0.42151  -0.23072   0.00000
  41       17D 0        0.13387   0.00000   0.00000   0.00000   0.00000
  42       17D+1        0.00000   0.00000   0.00000   0.00000   1.02994
  43       17D-1        0.00000   0.48252   0.00000   0.00000   0.00000
  44       17D+2        0.09540   0.00000   0.00000   0.00000   0.00000
  45       17D-2        0.00000   0.00000   0.34424   1.11477   0.00000
  46       18F 0       -0.00081   0.00000   0.00000   0.00000   0.00000
  47       18F+1        0.00000   0.00000   0.00000   0.00000  -0.00302
  48       18F-1        0.00000   0.00644   0.00000   0.00000   0.00000
  49       18F+2        0.00267   0.00000   0.00000   0.00000   0.00000
  50       18F-2        0.00000   0.00000   0.01065   0.00041   0.00000
  51       18F+3        0.00000   0.00000   0.00000   0.00000  -0.00055
  52       18F-3        0.00000  -0.00109   0.00000   0.00000   0.00000
  53       19F 0       -0.00797   0.00000   0.00000   0.00000   0.00000
  54       19F+1        0.00000   0.00000   0.00000   0.00000  -0.01010
  55       19F-1        0.00000   0.05607   0.00000   0.00000   0.00000
  56       19F+2        0.03518   0.00000   0.00000   0.00000   0.00000
  57       19F-2        0.00000   0.00000   0.04679  -0.01624   0.00000
  58       19F+3        0.00000   0.00000   0.00000   0.00000   0.00322
  59       19F-3        0.00000  -0.02274   0.00000   0.00000   0.00000
  60       20G 0       -0.00024   0.00000   0.00000   0.00000   0.00000
  61       20G+1        0.00000   0.00000   0.00000   0.00000   0.00040
  62       20G-1        0.00000   0.00212   0.00000   0.00000   0.00000
  63       20G+2       -0.00084   0.00000   0.00000   0.00000   0.00000
  64       20G-2        0.00000   0.00000   0.00113  -0.00087   0.00000
  65       20G+3        0.00000   0.00000   0.00000   0.00000  -0.00133
  66       20G-3        0.00000   0.00539   0.00000   0.00000   0.00000
  67       20G+4        0.00214   0.00000   0.00000   0.00000   0.00000
  68       20G-4        0.00000   0.00000   0.00650  -0.00194   0.00000
  69 2   O  1S         -0.01297  -0.00968   0.00000   0.00000   0.00000
  70        2S          0.05030   0.05506   0.00000   0.00000   0.00000
  71        3S          0.01329   0.01354   0.00000   0.00000   0.00000
  72        4S         -0.02361  -0.14039   0.00000   0.00000   0.00000
  73        5PX         0.00000   0.00000  -0.13891  -0.00357  -0.00934
  74        5PY        -0.02053  -0.07188   0.00000   0.00000   0.00000
  75        5PZ        -0.01239  -0.02845   0.00000   0.00000   0.00000
  76        6PX         0.00000   0.00000  -0.15055   0.02514  -0.02441
  77        6PY        -0.04213  -0.08875   0.00000   0.00000   0.00000
  78        6PZ        -0.01428  -0.01153   0.00000   0.00000   0.00000
  79        7PX         0.00000   0.00000  -0.34252  -0.09556   0.01094
  80        7PY         0.03240  -0.03467   0.00000   0.00000   0.00000
  81        7PZ        -0.03944  -0.17766   0.00000   0.00000   0.00000
  82        8D 0        0.00034   0.00122   0.00000   0.00000   0.00000
  83        8D+1        0.00000   0.00000   0.00346  -0.00142   0.00141
  84        8D-1        0.00010   0.00119   0.00000   0.00000   0.00000
  85        8D+2        0.00141   0.00087   0.00000   0.00000   0.00000
  86        8D-2        0.00000   0.00000  -0.00248   0.00251  -0.00194
  87        9D 0       -0.00390   0.00393   0.00000   0.00000   0.00000
  88        9D+1        0.00000   0.00000   0.00251  -0.00300   0.00308
  89        9D-1        0.00299   0.01354   0.00000   0.00000   0.00000
  90        9D+2        0.00430   0.01183   0.00000   0.00000   0.00000
  91        9D-2        0.00000   0.00000   0.00035   0.00672  -0.00412
  92       10F 0        0.00010   0.00125   0.00000   0.00000   0.00000
  93       10F+1        0.00000   0.00000   0.00073  -0.00021   0.00012
  94       10F-1        0.00040   0.00117   0.00000   0.00000   0.00000
  95       10F+2        0.00094   0.00218   0.00000   0.00000   0.00000
  96       10F-2        0.00000   0.00000  -0.00034   0.00126  -0.00081
  97       10F+3        0.00000   0.00000   0.00003   0.00108  -0.00087
  98       10F-3       -0.00106  -0.00114   0.00000   0.00000   0.00000
  99 3   O  1S         -0.01297   0.00968   0.00000   0.00000   0.00000
 100        2S          0.05030  -0.05506   0.00000   0.00000   0.00000
 101        3S          0.01329  -0.01354   0.00000   0.00000   0.00000
 102        4S         -0.02361   0.14039   0.00000   0.00000   0.00000
 103        5PX         0.00000   0.00000   0.13891   0.00357  -0.00934
 104        5PY         0.02053  -0.07188   0.00000   0.00000   0.00000
 105        5PZ        -0.01239   0.02845   0.00000   0.00000   0.00000
 106        6PX         0.00000   0.00000   0.15055  -0.02514  -0.02441
 107        6PY         0.04213  -0.08875   0.00000   0.00000   0.00000
 108        6PZ        -0.01428   0.01153   0.00000   0.00000   0.00000
 109        7PX         0.00000   0.00000   0.34252   0.09556   0.01094
 110        7PY        -0.03240  -0.03467   0.00000   0.00000   0.00000
 111        7PZ        -0.03944   0.17766   0.00000   0.00000   0.00000
 112        8D 0        0.00034  -0.00122   0.00000   0.00000   0.00000
 113        8D+1        0.00000   0.00000  -0.00346   0.00142   0.00141
 114        8D-1       -0.00010   0.00119   0.00000   0.00000   0.00000
 115        8D+2        0.00141  -0.00087   0.00000   0.00000   0.00000
 116        8D-2        0.00000   0.00000  -0.00248   0.00251   0.00194
 117        9D 0       -0.00390  -0.00393   0.00000   0.00000   0.00000
 118        9D+1        0.00000   0.00000  -0.00251   0.00300   0.00308
 119        9D-1       -0.00299   0.01354   0.00000   0.00000   0.00000
 120        9D+2        0.00430  -0.01183   0.00000   0.00000   0.00000
 121        9D-2        0.00000   0.00000   0.00035   0.00672   0.00412
 122       10F 0        0.00010  -0.00125   0.00000   0.00000   0.00000
 123       10F+1        0.00000   0.00000  -0.00073   0.00021   0.00012
 124       10F-1       -0.00040   0.00117   0.00000   0.00000   0.00000
 125       10F+2        0.00094  -0.00218   0.00000   0.00000   0.00000
 126       10F-2        0.00000   0.00000  -0.00034   0.00126   0.00081
 127       10F+3        0.00000   0.00000  -0.00003  -0.00108  -0.00087
 128       10F-3        0.00106  -0.00114   0.00000   0.00000   0.00000
                          31        32        33        34        35
                        (A1)--V   (A1)--V   (B1)--V   (B2)--V   (A1)--V
     Eigenvalues --     0.17756   0.18809   0.22204   0.22692   0.24746
   1 1   Ti 1S         -0.00269   0.00844   0.00000   0.00000  -0.01254
   2        2S         -0.01105   0.00280   0.00000   0.00000  -0.01501
   3        3S          0.02092  -0.09878   0.00000   0.00000  -0.33365
   4        4S         -0.54034   1.44026   0.00000   0.00000   1.52851
   5        5S         -0.24583   1.26029   0.00000   0.00000   2.63379
   6        6S         -0.13108   0.35879   0.00000   0.00000   0.06368
   7        7S          0.16692   0.03822   0.00000   0.00000   1.00285
   8        8PX         0.00000   0.00000   0.05129   0.00000   0.00000
   9        8PY         0.00000   0.00000   0.00000  -0.07027   0.00000
  10        8PZ        -0.00833   0.01969   0.00000   0.00000  -0.02551
  11        9PX         0.00000   0.00000   0.19385   0.00000   0.00000
  12        9PY         0.00000   0.00000   0.00000  -0.03144   0.00000
  13        9PZ         0.09591   0.11268   0.00000   0.00000  -0.03475
  14       10PX         0.00000   0.00000   0.31370   0.00000   0.00000
  15       10PY         0.00000   0.00000   0.00000  -0.83321   0.00000
  16       10PZ         0.04052   0.53677   0.00000   0.00000  -0.09365
  17       11PX         0.00000   0.00000   1.73501   0.00000   0.00000
  18       11PY         0.00000   0.00000   0.00000  -0.17134   0.00000
  19       11PZ         0.42057   0.24719   0.00000   0.00000  -0.59724
  20       12PX         0.00000   0.00000   0.17047   0.00000   0.00000
  21       12PY         0.00000   0.00000   0.00000  -0.20328   0.00000
  22       12PZ         0.00121   0.08855   0.00000   0.00000  -0.06896
  23       13PX         0.00000   0.00000  -0.88860   0.00000   0.00000
  24       13PY         0.00000   0.00000   0.00000  -0.18250   0.00000
  25       13PZ        -0.48387  -0.17398   0.00000   0.00000   0.16812
  26       14D 0       -0.22939   0.01511   0.00000   0.00000   0.24604
  27       14D+1        0.00000   0.00000  -0.20810   0.00000   0.00000
  28       14D-1        0.00000   0.00000   0.00000  -0.24356   0.00000
  29       14D+2        0.03007  -0.12162   0.00000   0.00000   0.27635
  30       14D-2        0.00000   0.00000   0.00000   0.00000   0.00000
  31       15D 0       -0.32253   0.00102   0.00000   0.00000   0.13072
  32       15D+1        0.00000   0.00000  -0.04231   0.00000   0.00000
  33       15D-1        0.00000   0.00000   0.00000  -1.01067   0.00000
  34       15D+2        0.22757  -0.50429   0.00000   0.00000   0.28293
  35       15D-2        0.00000   0.00000   0.00000   0.00000   0.00000
  36       16D 0       -0.29398   0.01062   0.00000   0.00000   0.25669
  37       16D+1        0.00000   0.00000  -0.20008   0.00000   0.00000
  38       16D-1        0.00000   0.00000   0.00000  -0.22518   0.00000
  39       16D+2        0.03038  -0.11738   0.00000   0.00000   0.32910
  40       16D-2        0.00000   0.00000   0.00000   0.00000   0.00000
  41       17D 0        0.91965   0.44045   0.00000   0.00000   0.39731
  42       17D+1        0.00000   0.00000  -0.38504   0.00000   0.00000
  43       17D-1        0.00000   0.00000   0.00000   1.25792   0.00000
  44       17D+2       -0.37512   1.19431   0.00000   0.00000  -0.04039
  45       17D-2        0.00000   0.00000   0.00000   0.00000   0.00000
  46       18F 0       -0.00231   0.00087   0.00000   0.00000   0.00806
  47       18F+1        0.00000   0.00000  -0.00269   0.00000   0.00000
  48       18F-1        0.00000   0.00000   0.00000  -0.00600   0.00000
  49       18F+2        0.00200  -0.00226   0.00000   0.00000   0.00791
  50       18F-2        0.00000   0.00000   0.00000   0.00000   0.00000
  51       18F+3        0.00000   0.00000   0.00548   0.00000   0.00000
  52       18F-3        0.00000   0.00000   0.00000   0.00428   0.00000
  53       19F 0       -0.04637   0.06499   0.00000   0.00000   0.04179
  54       19F+1        0.00000   0.00000  -0.02327   0.00000   0.00000
  55       19F-1        0.00000   0.00000   0.00000   0.03787   0.00000
  56       19F+2       -0.05331   0.11054   0.00000   0.00000   0.03250
  57       19F-2        0.00000   0.00000   0.00000   0.00000   0.00000
  58       19F+3        0.00000   0.00000   0.03275   0.00000   0.00000
  59       19F-3        0.00000   0.00000   0.00000  -0.11867   0.00000
  60       20G 0        0.00241  -0.00681   0.00000   0.00000   0.00149
  61       20G+1        0.00000   0.00000  -0.00097   0.00000   0.00000
  62       20G-1        0.00000   0.00000   0.00000   0.00657   0.00000
  63       20G+2        0.00165  -0.00816   0.00000   0.00000   0.00245
  64       20G-2        0.00000   0.00000   0.00000   0.00000   0.00000
  65       20G+3        0.00000   0.00000  -0.00461   0.00000   0.00000
  66       20G-3        0.00000   0.00000   0.00000   0.01654   0.00000
  67       20G+4       -0.00253   0.00598   0.00000   0.00000   0.00611
  68       20G-4        0.00000   0.00000   0.00000   0.00000   0.00000
  69 2   O  1S          0.00379  -0.01514   0.00000  -0.00827  -0.01246
  70        2S         -0.02345   0.03780   0.00000   0.04542   0.02300
  71        3S         -0.00767   0.01958   0.00000   0.02203   0.00810
  72        4S          0.17419  -0.25300   0.00000  -0.57393   0.10062
  73        5PX         0.00000   0.00000  -0.11492   0.00000   0.00000
  74        5PY        -0.02506   0.04554   0.00000   0.08875   0.02286
  75        5PZ        -0.01125   0.01265   0.00000  -0.02033   0.13637
  76        6PX         0.00000   0.00000  -0.10920   0.00000   0.00000
  77        6PY        -0.04453   0.04945   0.00000   0.12874   0.01707
  78        6PZ        -0.02222  -0.01015   0.00000  -0.02448   0.14890
  79        7PX         0.00000   0.00000  -0.33639   0.00000   0.00000
  80        7PY        -0.13441   0.45390   0.00000   0.64432   0.11317
  81        7PZ         0.08815  -0.13376   0.00000  -0.36916   0.34527
  82        8D 0        0.00244   0.00067   0.00000  -0.00181  -0.00368
  83        8D+1        0.00000   0.00000   0.00028   0.00000   0.00000
  84        8D-1        0.00006  -0.00458   0.00000  -0.00609   0.00226
  85        8D+2        0.00195  -0.00273   0.00000  -0.00559  -0.00114
  86        8D-2        0.00000   0.00000  -0.00162   0.00000   0.00000
  87        9D 0        0.00557   0.00533   0.00000   0.00012  -0.00309
  88        9D+1        0.00000   0.00000  -0.00267   0.00000   0.00000
  89        9D-1       -0.01299   0.02344   0.00000   0.03776   0.01149
  90        9D+2       -0.00353   0.02420   0.00000   0.02380   0.00415
  91        9D-2        0.00000   0.00000  -0.00677   0.00000   0.00000
  92       10F 0       -0.00033   0.00122   0.00000   0.00010   0.00016
  93       10F+1        0.00000   0.00000  -0.00042   0.00000   0.00000
  94       10F-1       -0.00143  -0.00082   0.00000   0.00092   0.00106
  95       10F+2       -0.00088   0.00093   0.00000   0.00160   0.00111
  96       10F-2        0.00000   0.00000   0.00045   0.00000   0.00000
  97       10F+3        0.00000   0.00000  -0.00024   0.00000   0.00000
  98       10F-3       -0.00021  -0.00099   0.00000  -0.00094  -0.00034
  99 3   O  1S          0.00379  -0.01514   0.00000   0.00827  -0.01246
 100        2S         -0.02345   0.03780   0.00000  -0.04542   0.02300
 101        3S         -0.00767   0.01958   0.00000  -0.02203   0.00810
 102        4S          0.17419  -0.25300   0.00000   0.57393   0.10062
 103        5PX         0.00000   0.00000  -0.11492   0.00000   0.00000
 104        5PY         0.02506  -0.04554   0.00000   0.08875  -0.02286
 105        5PZ        -0.01125   0.01265   0.00000   0.02033   0.13637
 106        6PX         0.00000   0.00000  -0.10920   0.00000   0.00000
 107        6PY         0.04453  -0.04945   0.00000   0.12874  -0.01707
 108        6PZ        -0.02222  -0.01015   0.00000   0.02448   0.14890
 109        7PX         0.00000   0.00000  -0.33639   0.00000   0.00000
 110        7PY         0.13441  -0.45390   0.00000   0.64432  -0.11317
 111        7PZ         0.08815  -0.13376   0.00000   0.36916   0.34527
 112        8D 0        0.00244   0.00067   0.00000   0.00181  -0.00368
 113        8D+1        0.00000   0.00000   0.00028   0.00000   0.00000
 114        8D-1       -0.00006   0.00458   0.00000  -0.00609  -0.00226
 115        8D+2        0.00195  -0.00273   0.00000   0.00559  -0.00114
 116        8D-2        0.00000   0.00000   0.00162   0.00000   0.00000
 117        9D 0        0.00557   0.00533   0.00000  -0.00012  -0.00309
 118        9D+1        0.00000   0.00000  -0.00267   0.00000   0.00000
 119        9D-1        0.01299  -0.02344   0.00000   0.03776  -0.01149
 120        9D+2       -0.00353   0.02420   0.00000  -0.02380   0.00415
 121        9D-2        0.00000   0.00000   0.00677   0.00000   0.00000
 122       10F 0       -0.00033   0.00122   0.00000  -0.00010   0.00016
 123       10F+1        0.00000   0.00000  -0.00042   0.00000   0.00000
 124       10F-1        0.00143   0.00082   0.00000   0.00092  -0.00106
 125       10F+2       -0.00088   0.00093   0.00000  -0.00160   0.00111
 126       10F-2        0.00000   0.00000  -0.00045   0.00000   0.00000
 127       10F+3        0.00000   0.00000  -0.00024   0.00000   0.00000
 128       10F-3        0.00021   0.00099   0.00000  -0.00094   0.00034
                          36        37        38        39        40
                        (A1)--V   (B2)--V   (A1)--V   (B1)--V   (B2)--V
     Eigenvalues --     0.32306   0.33994   0.44313   0.57424   0.61413
   1 1   Ti 1S         -0.01189   0.00000  -0.02605   0.00000   0.00000
   2        2S         -0.04673   0.00000   0.05731   0.00000   0.00000
   3        3S         -0.57618   0.00000  -0.87742   0.00000   0.00000
   4        4S          3.08841   0.00000   6.36222   0.00000   0.00000
   5        5S          5.13523   0.00000   6.72960   0.00000   0.00000
   6        6S          0.30246   0.00000   0.63685   0.00000   0.00000
   7        7S          1.64418   0.00000   1.50849   0.00000   0.00000
   8        8PX         0.00000   0.00000   0.00000  -0.06966   0.00000
   9        8PY         0.00000  -0.01167   0.00000   0.00000   0.01357
  10        8PZ         0.02488   0.00000   0.05497   0.00000   0.00000
  11        9PX         0.00000   0.00000   0.00000   1.15488   0.00000
  12        9PY         0.00000   0.52539   0.00000   0.00000  -0.00262
  13        9PZ         0.23712   0.00000  -0.69215   0.00000   0.00000
  14       10PX         0.00000   0.00000   0.00000   2.21942   0.00000
[...]
  21        2PX        -0.00000   0.00000   0.00007  -0.00000  -0.00000
  22        2PY        -0.00003   0.00057   0.00000  -0.00007   0.00016
  23        2PZ        -0.00001   0.00022  -0.00000   0.00026  -0.00003
  24 3   O  1S          0.00000  -0.00000  -0.00000  -0.00000  -0.00000
  25        2S         -0.00001   0.00024  -0.00000   0.00012   0.00006
  26        2PX         0.00000  -0.00000   0.00007  -0.00000   0.00000
  27        2PY        -0.00003   0.00057   0.00000  -0.00007   0.00016
  28        2PZ        -0.00001   0.00022  -0.00000   0.00026  -0.00003
                           6         7         8         9        10
   6        3S          2.37454
   7        3PX         0.00000   2.16144
   8        3PY         0.00000   0.00000   2.23213
   9        3PZ         0.00000   0.00000   0.00000   2.15844
  10        4D 0        0.00000   0.00000   0.00000   0.00000   0.25662
  11        4D+1        0.00000   0.00000   0.00000   0.00000   0.00000
  12        4D-1        0.00000   0.00000   0.00000   0.00000   0.00000
  13        4D+2        0.00000   0.00000   0.00000   0.00000   0.00000
  14        4D-2        0.00000   0.00000   0.00000   0.00000   0.00000
  15        5S         -0.06414   0.00000   0.00000   0.00000   0.00000
  16        5PX         0.00000   0.01125   0.00000   0.00000   0.00000
  17        5PY         0.00000   0.00000  -0.01450   0.00000   0.00000
  18        5PZ         0.00000   0.00000   0.00000   0.02518   0.00000
  19 2   O  1S          0.00003   0.00000   0.00007   0.00003  -0.00000
  20        2S         -0.00760   0.00000  -0.00961  -0.00489   0.00021
  21        2PX        -0.00000  -0.00594   0.00000   0.00000   0.00000
  22        2PY        -0.01850   0.00000   0.00317  -0.01186   0.02240
  23        2PZ        -0.00724  -0.00000  -0.01917   0.00135   0.03660
  24 3   O  1S          0.00003  -0.00000   0.00007   0.00003  -0.00000
  25        2S         -0.00760  -0.00000  -0.00961  -0.00489   0.00021
  26        2PX         0.00000  -0.00594   0.00000  -0.00000   0.00000
  27        2PY        -0.01850  -0.00000   0.00317  -0.01186   0.02240
  28        2PZ        -0.00724  -0.00000  -0.01917   0.00135   0.03660
                          11        12        13        14        15
  11        4D+1        0.18831
  12        4D-1        0.00000   0.52270
  13        4D+2        0.00000   0.00000   0.26148
  14        4D-2        0.00000   0.00000   0.00000   0.39219
  15        5S          0.00000   0.00000   0.00000   0.00000   0.09340
  16        5PX         0.00000   0.00000   0.00000   0.00000   0.00000
  17        5PY         0.00000   0.00000   0.00000   0.00000   0.00000
  18        5PZ         0.00000   0.00000   0.00000   0.00000   0.00000
  19 2   O  1S         -0.00000  -0.00084  -0.00040   0.00000  -0.00121
  20        2S         -0.00000  -0.00008   0.00056  -0.00000   0.02360
  21        2PX         0.03703  -0.00000  -0.00000   0.07749   0.00000
  22        2PY        -0.00000   0.09584   0.01447  -0.00000   0.02776
  23        2PZ         0.00000   0.00581   0.04932   0.00000   0.01098
  24 3   O  1S         -0.00000  -0.00084  -0.00040   0.00000  -0.00121
  25        2S          0.00000  -0.00008   0.00056  -0.00000   0.02360
  26        2PX         0.03703   0.00000  -0.00000   0.07749  -0.00000
  27        2PY         0.00000   0.09584   0.01447   0.00000   0.02776
  28        2PZ         0.00000   0.00581   0.04932  -0.00000   0.01098
                          16        17        18        19        20
  16        5PX         0.15210
  17        5PY         0.00000   0.13798
  18        5PZ         0.00000   0.00000   0.07055
  19 2   O  1S          0.00000  -0.00159  -0.00065   2.10975
  20        2S         -0.00000   0.02269   0.01124  -0.10693   1.93896
  21        2PX         0.05014  -0.00000  -0.00000   0.00000   0.00000
  22        2PY         0.00000  -0.01071   0.02416   0.00000   0.00000
  23        2PZ         0.00000   0.05623   0.00563   0.00000   0.00000
  24 3   O  1S         -0.00000  -0.00159  -0.00065   0.00000   0.00000
  25        2S         -0.00000   0.02269   0.01124   0.00000  -0.00004
  26        2PX         0.05014   0.00000   0.00000  -0.00000   0.00000
  27        2PY         0.00000  -0.01071   0.02416   0.00000  -0.00014
  28        2PZ         0.00000   0.05623   0.00563   0.00000   0.00000
                          21        22        23        24        25
  21        2PX         1.33053
  22        2PY         0.00000   1.36123
  23        2PZ         0.00000   0.00000   1.49712
  24 3   O  1S          0.00000   0.00000   0.00000   2.10975
  25        2S          0.00000  -0.00014   0.00000  -0.10693   1.93896
  26        2PX         0.00004   0.00000   0.00000   0.00000   0.00000
  27        2PY         0.00000   0.00167   0.00000   0.00000   0.00000
  28        2PZ         0.00000   0.00000  -0.00029   0.00000   0.00000
                          26        27        28
  26        2PX         1.33053
  27        2PY         0.00000   1.36123
  28        2PZ         0.00000   0.00000   1.49712
     MBS Gross orbital populations:
                         Total     Alpha     Beta      Spin
   1 1   Ti 1S          1.99994   0.99997   0.99997   0.00000
   2        2S          1.99655   0.99828   0.99828   0.00000
   3        2PX         1.99791   0.99895   0.99895   0.00000
   4        2PY         1.99805   0.99902   0.99902   0.00000
   5        2PZ         1.99781   0.99890   0.99890   0.00000
   6        3S          2.01410   1.00705   1.00705   0.00000
   7        3PX         1.95094   0.97547   0.97547   0.00000
   8        3PY         1.95067   0.97533   0.97533   0.00000
   9        3PZ         1.94344   0.97172   0.97172   0.00000
  10        4D 0        0.37505   0.18752   0.18752   0.00000
  11        4D+1        0.26237   0.13118   0.13118   0.00000
  12        4D-1        0.72419   0.36209   0.36209   0.00000
  13        4D+2        0.38940   0.19470   0.19470   0.00000
  14        4D-2        0.54716   0.27358   0.27358   0.00000
  15        5S          0.15167   0.07583   0.07583   0.00000
  16        5PX         0.26292   0.13146   0.13146   0.00000
  17        5PY         0.25647   0.12823   0.12823   0.00000
  18        5PZ         0.17551   0.08776   0.08776   0.00000
  19 2   O  1S          1.99826   0.99913   0.99913   0.00000
  20        2S          1.86841   0.93420   0.93420   0.00000
  21        2PX         1.48935   0.74467   0.74467   0.00000
  22        2PY         1.51012   0.75506   0.75506   0.00000
  23        2PZ         1.63678   0.81839   0.81839   0.00000
  24 3   O  1S          1.99826   0.99913   0.99913   0.00000
  25        2S          1.86841   0.93420   0.93420   0.00000
  26        2PX         1.48935   0.74467   0.74467   0.00000
  27        2PY         1.51012   0.75506   0.75506   0.00000
  28        2PZ         1.63678   0.81839   0.81839   0.00000
          MBS Condensed to atoms (all electrons):
               1          2          3
     1  Ti  20.037946   0.478102   0.478102
     2  O    0.478102   8.023717   0.001106
     3  O    0.478102   0.001106   8.023717
          MBS Atomic-Atomic Spin Densities.
               1          2          3
     1  Ti   0.000000   0.000000   0.000000
     2  O    0.000000   0.000000   0.000000
     3  O    0.000000   0.000000   0.000000
 MBS Mulliken charges and spin densities:
               1          2
     1  Ti   1.005849   0.000000
     2  O   -0.502924   0.000000
     3  O   -0.502924   0.000000
 Sum of MBS Mulliken charges =  -0.00000   0.00000
 MBS Mulliken charges and spin densities with hydrogens summed into heavy atoms:
               1          2
     1  Ti   1.005849   0.000000
     2  O   -0.502924   0.000000
     3  O   -0.502924   0.000000
 MBS Atomic Valencies and Mayer Atomic Bond Orders:
               1          2          3
     1  Ti   4.397241   2.198621   2.198621
     2  O    2.198621   2.261379   0.062759
     3  O    2.198621   0.062759   2.261379
 MBS Mayer-style numbers of lone pairs (19.000 valence pairs, 14.540 lone pairs):
               1
     1  Ti   8.298455
     2  O    3.120773
     3  O    3.120773
 BEBO parameters in MulMin, MxElBE=  0:
 ELP=  6.24154527360     EBEBO=-0.773558466355E-33 Sum=  6.24154527360    
 ELP=  6.24154527360     EBEBO=  0.00000000000     EJK=  6.24154527360      0.00000000000     Sum=  6.24154527360    
 0 EA=  3.12077263680     EB=  3.12077263680     ETot=  6.24154527360    
 1 EA=  3.12077263680     EB=  3.12077263680     ETot=  6.24154527360    
 2 EA=  3.12077263680     EB=  3.12077263680     ETot=  6.24154527360    
 3 EJ=  6.24154527360     EK=  0.00000000000     ETot=  6.24154527360    
 4 EJ=  6.24154527360     EK=  0.00000000000     ETot=  6.24154527360    
 5 EA=  3.12077263680     EB=  3.12077263680     ETot=  6.24154527360    
 Orbital energies and kinetic energies (alpha):
                                 1                 2
   1         (A1)--O        -183.392500        231.873629
   2         (A1)--O         -21.568172         40.824405
   3         (A1)--O         -20.507186         29.201073
   4         (B2)--O         -20.507185         29.201122
   5         (A1)--O         -17.935876         39.558246
   6         (B2)--O         -17.934849         39.562735
   7         (B1)--O         -17.934041         39.554395
   8         (A1)--O          -2.982078          8.058449
   9         (B2)--O          -1.926269          6.429827
  10         (A1)--O          -1.914742          6.662058
  11         (B1)--O          -1.901548          6.922064
  12         (A1)--O          -1.169459          3.334500
  13         (B2)--O          -1.151303          3.504611
  14         (A1)--O          -0.507700          2.277591
  15         (B2)--O          -0.491836          2.775453
  16         (A2)--O          -0.457730          2.109351
  17         (B1)--O          -0.437120          2.104218
  18         (A1)--O          -0.436761          2.652670
  19         (B2)--O          -0.408502          2.353635
  20         (A1)--V          -0.045331          0.460349
  21         (B1)--V           0.016636          0.609234
  22         (A1)--V           0.044674          1.196053
  23         (B2)--V           0.060630          0.279760
  24         (A1)--V           0.074365          0.597223
  25         (B1)--V           0.099555          1.390535
  26         (A1)--V           0.104830          0.903810
  27         (B2)--V           0.131578          1.207015
  28         (A2)--V           0.158467          3.022327
  29         (A2)--V           0.173007          0.788158
  30         (B1)--V           0.173434          1.092136
  31         (A1)--V           0.177562          1.242649
  32         (A1)--V           0.188093          0.509768
  33         (B1)--V           0.222045          1.303757
  34         (B2)--V           0.226915          1.338565
  35         (A1)--V           0.247459          3.018565
  36         (A1)--V           0.323058          1.089936
  37         (B2)--V           0.339940          2.065864
  38         (A1)--V           0.443128          1.696413
  39         (B1)--V           0.574238          1.590511
  40         (B2)--V           0.614126          2.048757
  41         (A1)--V           0.615657          2.175494
  42         (B1)--V           0.654865          2.047759
  43         (A2)--V           0.656498          2.018599
  44         (A1)--V           0.684631          1.708086
  45         (A1)--V           0.777756          1.917986
  46         (B2)--V           0.818561          1.740824
  47         (A1)--V           0.864175          1.642379
  48         (B2)--V           0.883353          1.574877
  49         (B1)--V           0.913575          1.282072
  50         (B2)--V           0.932233          1.678869
  51         (A1)--V           0.962332          1.569444
  52         (A2)--V           0.964122          1.850879
  53         (B1)--V           0.987885          1.936134
  54         (A1)--V           1.048485          1.910623
  55         (B1)--V           1.080656          1.702379
  56         (A2)--V           1.132187          1.838385
  57         (B2)--V           1.153085          2.074865
  58         (B2)--V           1.396656          2.592372
  59         (A1)--V           1.526682          2.693459
  60         (A1)--V           1.734114          3.626281
  61         (B2)--V           1.738501          3.309484
  62         (A2)--V           1.802077          2.286102
  63         (B2)--V           1.889388          2.720005
  64         (A1)--V           1.899796          2.767493
  65         (A1)--V           1.929133          7.136146
  66         (B1)--V           1.993520          5.892273
  67         (B1)--V           2.011148          2.818590
  68         (A2)--V           2.086681          4.787529
  69         (A1)--V           2.101406          6.815608
  70         (B1)--V           2.160569          5.343019
  71         (B2)--V           2.188997          6.032333
  72         (A1)--V           2.213122          5.423462
  73         (B2)--V           2.230956          4.883900
  74         (A1)--V           2.428224          8.102009
  75         (B1)--V           2.510934          7.082880
  76         (B2)--V           2.519186          4.993146
  77         (A2)--V           2.609257          6.798814
  78         (A1)--V           2.710776          6.088289
  79         (A1)--V           2.936857          6.706390
  80         (B2)--V           3.038316          6.455203
  81         (B1)--V           3.199087          4.004609
  82         (A1)--V           3.212006          4.036880
  83         (A2)--V           3.308650          4.092705
  84         (A1)--V           3.466272          4.970939
  85         (B2)--V           3.467600          5.225712
  86         (A2)--V           3.507977          5.085725
  87         (B1)--V           3.573144          5.321187
  88         (A1)--V           3.676597          6.059619
  89         (B2)--V           3.690356          6.163876
  90         (B1)--V           3.692222          5.894405
  91         (A1)--V           3.731375          5.988715
  92         (A2)--V           3.735892          5.832315
  93         (B1)--V           3.744324          5.813742
  94         (B2)--V           3.787252          6.242142
  95         (B2)--V           3.805191          5.698094
  96         (A1)--V           3.868290          5.710872
  97         (A2)--V           4.428650          9.171584
  98         (A1)--V           4.428824          9.235962
  99         (B1)--V           4.449763          9.003237
 100         (B2)--V           4.541720          8.810505
 101         (A1)--V           5.094210          9.048986
 102         (B2)--V           5.229889          8.900050
 103         (A2)--V           5.633357          6.434079
 104         (B2)--V           5.638751          6.459357
 105         (B1)--V           5.640880          6.443035
 106         (A1)--V           5.650553          6.462564
 107         (B1)--V           5.727283          6.593854
 108         (B2)--V           5.729890          6.610828
 109         (A1)--V           5.782772          6.713849
 110         (A2)--V           5.840090          6.722282
 111         (A2)--V           6.037659          7.325710
 112         (B2)--V           6.098660          7.534900
 113         (B1)--V           6.119610          7.431819
 114         (A1)--V           6.126573          7.543097
 115         (A1)--V           6.458408          9.053635
 116         (B2)--V           6.505751          9.510405
 117         (A2)--V           6.849004          9.331260
 118         (B2)--V           6.862460          9.358562
 119         (A1)--V           6.911392          9.385063
 120         (B1)--V           6.916851          9.396466
 121         (B1)--V           7.295806          9.666559
 122         (A2)--V           7.299409          9.714074
 123         (B2)--V           7.335407          9.695754
 124         (A1)--V           7.337762          9.774542
 125         (A1)--V           7.559404         10.648228
 126         (B2)--V           7.649631         10.601009
 127         (B2)--V           9.963206         29.266874
 128         (A1)--V          10.109457         29.301228
 Total kinetic energy from orbitals= 9.979200645967D+02
                          Isotropic Fermi Contact Couplings
        Atom                 a.u.       MegaHertz       Gauss      10(-4) cm-1
     1  Ti(47)             0.00000      -0.00000      -0.00000      -0.00000
     2  O(17)              0.00000      -0.00000      -0.00000      -0.00000
     3  O(17)              0.00000      -0.00000      -0.00000      -0.00000
 --------------------------------------------------------
       Center         ----  Spin Dipole Couplings  ----
                      3XX-RR        3YY-RR        3ZZ-RR
 --------------------------------------------------------
     1   Atom        0.000000      0.000000      0.000000
     2   Atom        0.000000      0.000000      0.000000
     3   Atom        0.000000      0.000000      0.000000
 --------------------------------------------------------
                        XY            XZ            YZ
 --------------------------------------------------------
     1   Atom        0.000000      0.000000      0.000000
     2   Atom        0.000000      0.000000      0.000000
     3   Atom        0.000000      0.000000      0.000000
 --------------------------------------------------------


 ---------------------------------------------------------------------------------
              Anisotropic Spin Dipole Couplings in Principal Axis System
 ---------------------------------------------------------------------------------

       Atom             a.u.   MegaHertz   Gauss  10(-4) cm-1        Axes

              Baa     0.0000    -0.000    -0.000    -0.000  1.0000  0.0000  0.0000
     1 Ti(47) Bbb     0.0000    -0.000    -0.000    -0.000 -0.0000  1.0000  0.0000
              Bcc     0.0000    -0.000    -0.000    -0.000  0.0000  0.0000  1.0000
 
              Baa     0.0000    -0.000    -0.000    -0.000  1.0000  0.0000  0.0000
     2 O(17)  Bbb     0.0000    -0.000    -0.000    -0.000 -0.0000  1.0000  0.0000
              Bcc     0.0000    -0.000    -0.000    -0.000  0.0000  0.0000  1.0000
 
              Baa     0.0000    -0.000    -0.000    -0.000  1.0000  0.0000  0.0000
     3 O(17)  Bbb     0.0000    -0.000    -0.000    -0.000 -0.0000  1.0000  0.0000
              Bcc     0.0000    -0.000    -0.000    -0.000  0.0000  0.0000  1.0000
 

 ---------------------------------------------------------------------------------


 Test job not archived.
 1\1\GINC-SMP-N248\SP\ROHF\CC-pVTZ\O2Ti1\BLZ11\18-Dec-2025\0\\# SP ROHF
 /cc-pVTZ Pop=(Full) scf=tight IOp(6/27=122)\\TiO2\\0,1\Ti,0,0.,0.,0.40
 1628\O,0,0.,1.359439,-0.516671\O,0,0.,-1.359439,-0.516671\\Version=ES6
 4L-G16RevC.01\State=1-A1\HF=-998.1791159\RMSD=8.766e-09\Dipole=0.,0.,3
 .1589207\Quadrupole=4.0256935,-8.1055109,4.0798174,0.,0.,0.\PG=C02V [C
 2(Ti1),SGV(O2)]\\@


     ON THE SURVIVAL OF THE FITTEST -
 "STRONG REPRESENTATIVES FROM EACH PAST ERA THRIVE TODAY,
 SUCH AS PROGRAMMING IN THE THIRTY YEAR OLD LANGUAGE KNOWN
 AS FORTRAN, AND EVEN IN THE ANCIENT SCRIPT KNOWN AS DIRECT
 MACHINE CODE. SOME PEOPLE MIGHT LOOK ON SUCH RELICS AS LIVING
 FOSSILS; OTHERS WOULD POINT OUT THAT EVEN A VERY OLD SPECIES
 MIGHT STILL BE FILLING A PARTICULAR ECOLOGICAL NICHE."
     -- ALAN KAY, SCI.AM. SEPTEMBER 1984
 Job cpu time:       0 days  0 hours  0 minutes  4.5 seconds.
 Elapsed time:       0 days  0 hours  0 minutes  5.2 seconds.
 File lengths (MBytes):  RWF=     10 Int=      0 D2E=      0 Chk=      2 Scr=      1
 Normal termination of Gaussian 16 at Thu Dec 18 20:37:39 2025.
/var/spool/slurmd/job21787742/slurm_script: line 22: crc-job-stats.py: command not found
